<UPF version="2.0.1">
  <PP_INFO>
    Generated using FHI98PP, converted with fhi2upf.x v.5.0.1
    Author: Abinit web site
    Generation date: 10-Jul-2012, PG
    Pseudopotential type: SL
    Element: Mo
    Functional: SLA-PW

    Suggested minimum cutoff for wavefunctions:   0. Ry
    Suggested minimum cutoff for charge density:   0. Ry
    The Pseudo was generated with a Non-Relativistic Calculation
    L component and cutoff radius for Local Potential:  1   0.0000

    Valence configuration: 
    nl pn  l   occ       Rcut    Rcut US       E pseu
    5s  5  0  2.00      0.000      0.000     0.000000
    5p  5  1  0.00      0.000      0.000     0.000000
    4d  4  2  4.00      0.000      0.000     0.000000
    4f  4  3  0.00      0.000      0.000     0.000000

    Generation configuration: not available.
    Comment:
    molybdenum, fhi98PP : Trouiller-Martins-type, LDA Ceperley/Alder Perdew/Wang (19
  </PP_INFO>
  <!--                               -->
  <!-- END OF HUMAN READABLE SECTION -->
  <!--                               -->
  <PP_HEADER generated="Generated using FHI98PP, converted with fhi2upf.x v.5.0.1"
             author="Abinit web site"
             date="10-Jul-2012, PG"
             comment="molybdenum, fhi98PP : Trouiller-Martins-type, LDA Ceperley/Alder Perdew/Wang (19"
             element="Mo"
             pseudo_type="SL"
             relativistic="no"
             is_ultrasoft="F"
             is_paw="F"
             is_coulomb="F"
             has_so="F"
             has_wfc="F"
             has_gipaw="F"
             paw_as_gipaw="F"
             core_correction="F"
             functional="SLA-PW"
             z_valence="6.000000000000000E+000"
             total_psenergy="0.000000000000000E+000"
             wfc_cutoff="0.000000000000000E+000"
             rho_cutoff="0.000000000000000E+000"
             l_max="3"
             l_max_rho="0"
             l_local="1"
             mesh_size="541"
             number_of_wfc="4"
             number_of_proj="3"/>
  <PP_MESH dx="2.439988682353512E-002" mesh="541" xmin="-5.075173815233852E+000" rmax="7.849975087306299E+001"
zmesh="4.200000000000000E+001">
    <PP_R type="real" size="541" columns="4">
 1.488095238095200E-004  1.524851190476200E-004  1.562515014881000E-004  1.601109135748500E-004 
 1.640656531401500E-004  1.681180747727100E-004  1.722705912196000E-004  1.765256748227200E-004 
 1.808858589908400E-004  1.853537397079200E-004  1.899319770787000E-004  1.946232969125500E-004 
 1.994304923462900E-004  2.043564255072400E-004  2.094040292172700E-004  2.145763087389300E-004 
 2.198763435647900E-004  2.253072892508400E-004  2.308723792953300E-004  2.365749270639300E-004 
 2.424183277624100E-004  2.484060604581400E-004  2.545416901514500E-004  2.608288698981900E-004 
 2.672713429846800E-004  2.738729451564000E-004  2.806376069017600E-004  2.875693557922400E-004 
 2.946723188803100E-004  3.019507251566500E-004  3.094089080680200E-004  3.170513080973000E-004 
 3.248824754073000E-004  3.329070725498600E-004  3.411298772418400E-004  3.495557852097200E-004 
 3.581898131044000E-004  3.670371014880800E-004  3.761029178948300E-004  3.853926599668300E-004 
 3.949118586680100E-004  4.046661815771100E-004  4.146614362620700E-004  4.249035737377400E-004 
 4.353986920090600E-004  4.461530397016900E-004  4.571730197823200E-004  4.684651933709400E-004 
 4.800362836472100E-004  4.918931798532900E-004  5.040429413956700E-004  5.164928020481400E-004 
 5.292501742587300E-004  5.423226535629200E-004  5.557180231059200E-004  5.694442582766400E-004 
 5.835095314560700E-004  5.979222168830400E-004  6.126908956400500E-004  6.278243607623600E-004 
 6.433316224731900E-004  6.592219135482800E-004  6.755046948129200E-004  6.921896607748000E-004 
 7.092867453959400E-004  7.268061280072200E-004  7.447582393689900E-004  7.631537678814100E-004 
 7.820036659480800E-004  8.013191564970000E-004  8.211117396624700E-004  8.413931996321300E-004 
 8.621756116630500E-004  8.834713492711300E-004  9.052930915981200E-004  9.276538309606000E-004 
 9.505668805853200E-004  9.740458825357800E-004  9.981048158344101E-004  1.022758004785500E-003 
 1.048020127503700E-003  1.073906224653100E-003  1.100431708402000E-003  1.127612371599500E-003 
 1.155464397178000E-003  1.184004367788300E-003  1.213249275672700E-003  1.243216532781800E-003 
 1.273923981141500E-003  1.305389903475700E-003  1.337633034091600E-003  1.370672570033600E-003 
 1.404528182513500E-003  1.439220028621600E-003  1.474768763328500E-003  1.511195551782700E-003 
 1.548522081911800E-003  1.586770577335000E-003  1.625963810595100E-003  1.666125116716800E-003 
 1.707278407099800E-003  1.749448183755100E-003  1.792659553893900E-003  1.836938244875000E-003 
 1.882310619523500E-003  1.928803691825700E-003  1.976445143013800E-003  2.025263338046200E-003 
 2.075287342496000E-003  2.126546939855600E-003  2.179072649270100E-003  2.232895743707000E-003 
 2.288048268576600E-003  2.344563060810400E-003  2.402473768412400E-003  2.461814870492200E-003 
 2.522621697793400E-003  2.584930453728900E-003  2.648778235936000E-003  2.714203058363600E-003 
 2.781243873905200E-003  2.849940597590600E-003  2.920334130351100E-003  2.992466383370800E-003 
 3.066380303040100E-003  3.142119896525200E-003  3.219730257969300E-003  3.299257595341200E-003 
 3.380749257946100E-003  3.464253764617400E-003  3.549820832603400E-003  3.637501407168700E-003 
 3.727347691925800E-003  3.819413179916300E-003  3.913752685460300E-003  4.010422376791200E-003 
 4.109479809497900E-003  4.210983960792500E-003  4.314995264624100E-003  4.421575647660300E-003 
 4.530788566157500E-003  4.642699043741600E-003  4.757373710122000E-003  4.874880840762000E-003 
 4.995290397528800E-003  5.118674070347800E-003  5.245105319885400E-003  5.374659421286500E-003 
 5.507413508992300E-003  5.643446622664400E-003  5.782839754244200E-003  5.925675896174100E-003 
 6.072040090809600E-003  6.222019481052600E-003  6.375703362234600E-003  6.533183235281800E-003 
 6.694552861193200E-003  6.859908316864700E-003  7.029348052291300E-003  7.202972949182900E-003 
 7.380886381027700E-003  7.563194274639100E-003  7.750005173222600E-003  7.941430301001201E-003 
 8.137583629436000E-003  8.338581945083001E-003  8.544544919126601E-003  8.755595178629000E-003 
 8.971858379541099E-003  9.193463281515799E-003  9.420541824569200E-003  9.653229207636100E-003 
 9.891663969064700E-003  1.013598806910100E-002  1.038634697440700E-002  1.064288974467500E-002 
 1.090576912136900E-002  1.117514161866700E-002  1.145116761664800E-002  1.173401145677900E-002 
 1.202384153976100E-002  1.232083042579300E-002  1.262515493731000E-002  1.293699626426200E-002 
 1.325654007198900E-002  1.358397661176700E-002  1.391950083407800E-002  1.426331250468000E-002 
 1.461561632354500E-002  1.497662204673700E-002  1.534654461129100E-002  1.572560426319000E-002 
 1.611402668849100E-002  1.651204314769700E-002  1.691989061344500E-002  1.733781191159700E-002 
 1.776605586581300E-002  1.820487744569900E-002  1.865453791860800E-002  1.911530500519700E-002 
 1.958745303882600E-002  2.007126312888500E-002  2.056702332816800E-002  2.107502880437400E-002 
 2.159558201584200E-002  2.212899289163300E-002  2.267557901605700E-002  2.323566581775300E-002 
 2.380958676345200E-002  2.439768355650900E-002  2.500030634035500E-002  2.561781390696200E-002 
 2.625057391046300E-002  2.689896308605200E-002  2.756336747427700E-002  2.824418265089200E-002 
 2.894181396236900E-002  2.965667676724000E-002  3.038919668339000E-002  3.113980984147000E-002 
 3.190896314455400E-002  3.269711453422500E-002  3.350473326322000E-002  3.433230017482200E-002 
 3.518030798914000E-002  3.604926159647200E-002  3.693967835790500E-002  3.785208841334500E-002 
 3.878703499715400E-002  3.974507476158400E-002  4.072677810819500E-002  4.173272952746800E-002 
 4.276352794679600E-002  4.381978708708200E-002  4.490213582813300E-002  4.601121858308800E-002 
 4.714769568209000E-002  4.831224376543800E-002  4.950555618644400E-002  5.072834342424900E-002 
 5.198133350682800E-002  5.326527244444700E-002  5.458092467382500E-002  5.592907351326800E-002 
 5.731052162904600E-002  5.872609151328300E-002  6.017662597366100E-002  6.166298863521100E-002 
 6.318606445449999E-002  6.474676024652699E-002  6.634600522461601E-002  6.798475155366400E-002 
 6.966397491703900E-002  7.138467509749000E-002  7.314787657239800E-002  7.495462912373600E-002 
 7.680600846309300E-002  7.870311687213100E-002  8.064708385887299E-002  8.263906683018700E-002 
 8.468025178089200E-002  8.677185399987999E-002  8.891511879367700E-002  9.111132222788100E-002 
 9.336177188691000E-002  9.566780765251701E-002  9.803080250153400E-002  1.004521633233200E-001 
 1.029333317574100E-001  1.054757850518200E-001  1.080810369426000E-001  1.107506385550800E-001 
 1.134861793273900E-001  1.162892879567700E-001  1.191616333693100E-001  1.221049257135300E-001 
 1.251209173786500E-001  1.282114040379100E-001  1.313782257176400E-001  1.346232678928700E-001 
 1.379484626098200E-001  1.413557896362800E-001  1.448472776403000E-001  1.484250053980200E-001 
 1.520911030313500E-001  1.558477532762200E-001  1.596971927821400E-001  1.636417134438600E-001 
 1.676836637659300E-001  1.718254502609400E-001  1.760695388823900E-001  1.804184564927800E-001 
 1.848747923681600E-001  1.894411997396500E-001  1.941203973732200E-001  1.989151711883400E-001 
 2.038283759166900E-001  2.088629368018300E-001  2.140218513408400E-001  2.193081910689600E-001 
 2.247251033883600E-001  2.302758134420500E-001  2.359636260340700E-001  2.417919275971100E-001 
 2.477641882087600E-001  2.538839636575200E-001  2.601548975598600E-001  2.665807235295900E-001 
 2.731652674007700E-001  2.799124495055700E-001  2.868262870083500E-001  2.939108962974600E-001 
 3.011704954360100E-001  3.086094066732800E-001  3.162320590181100E-001  3.240429908758500E-001 
 3.320468527504900E-001  3.402484100134200E-001  3.486525457407500E-001  3.572642636205500E-001 
 3.660886909319800E-001  3.751310815980000E-001  3.843968193134700E-001  3.938914207505100E-001 
 4.036205388430500E-001  4.135899661524700E-001  4.238056383164400E-001  4.342736375828500E-001 
 4.450001964311500E-001  4.559917012830000E-001  4.672546963046900E-001  4.787958873034200E-001 
 4.906221457198100E-001  5.027405127190900E-001  5.151582033832500E-001  5.278826110068200E-001 
 5.409213114986900E-001  5.542820678927000E-001  5.679728349696500E-001  5.820017639934000E-001 
 5.963772075640400E-001  6.111077245908700E-001  6.262020853882700E-001  6.416692768973600E-001 
 6.575185080367200E-001  6.737592151852300E-001  6.904010678003000E-001  7.074539741749700E-001 
 7.249280873370900E-001  7.428338110943200E-001  7.611818062283500E-001  7.799829968421900E-001 
 7.992485768641900E-001  8.189900167127400E-001  8.392190701255400E-001  8.599477811576400E-001 
 8.811884913522400E-001  9.029538470886400E-001  9.252568071117300E-001  9.481106502473901E-001 
 9.715289833085000E-001  9.955257491962199E-001  1.020115235201400E+000  1.045312081510800E+000 
 1.071131289924200E+000  1.097588232785300E+000  1.124698662135100E+000  1.152478719089800E+000 
 1.180944943451300E+000  1.210114283554600E+000  1.240004106358400E+000  1.270632207785400E+000 
 1.302016823317700E+000  1.334176638853700E+000  1.367130801833400E+000  1.400898932638600E+000 
 1.435501136274800E+000  1.470958014340800E+000  1.507290677295000E+000  1.544520757024200E+000 
 1.582670419722700E+000  1.621762379089900E+000  1.661819909853400E+000  1.702866861626800E+000 
 1.744927673108900E+000  1.788027386634700E+000  1.832191663084600E+000  1.877446797162800E+000 
 1.923819733052700E+000  1.971338080459100E+000  2.020030131046500E+000  2.069924875283300E+000 
 2.121052019702800E+000  2.173442004589500E+000  2.227126022102800E+000  2.282136034848800E+000 
 2.338504794909500E+000  2.396265863343800E+000  2.455453630168400E+000  2.516103334833500E+000 
 2.578251087203900E+000  2.641933889057900E+000  2.707189656117600E+000  2.774057240623700E+000 
 2.842576454467100E+000  2.912788092892400E+000  2.984733958786900E+000  3.058456887568900E+000 
 3.134000772691900E+000  3.211410591777400E+000  3.290732433394300E+000  3.372013524499100E+000 
 3.455302258554200E+000  3.540648224340500E+000  3.628102235481700E+000  3.717716360698100E+000 
 3.809543954807400E+000  3.903639690491100E+000  4.000059590846300E+000  4.098861062740200E+000 
 4.200102930989800E+000  4.303845473385300E+000  4.410150456577900E+000  4.519081172855400E+000 
 4.630702477824900E+000  4.745080829027200E+000  4.862284325504200E+000  4.982382748344100E+000 
 5.105447602228200E+000  5.231552158003200E+000  5.360771496305900E+000  5.493182552264700E+000 
 5.628864161305600E+000  5.767897106089900E+000  5.910364164610300E+000  6.056350159476200E+000 
 6.205942008415200E+000  6.359228776023100E+000  6.516301726790800E+000  6.677254379442600E+000 
 6.842182562614800E+000  7.011184471911400E+000  7.184360728367600E+000  7.361814438358300E+000 
 7.543651254985700E+000  7.729979440983900E+000  7.920909933176200E+000  8.116556408525600E+000 
 8.317035351816200E+000  8.522466125006099E+000  8.732971038293700E+000  8.948675422939599E+000 
 9.169707705886200E+000  9.396199486221599E+000  9.628285613531199E+000  9.866104268185500E+000 
 1.010979704361000E+001  1.035950903058700E+001  1.061538890364200E+001  1.087758900956200E+001 
 1.114626545809800E+001  1.142157821491300E+001  1.170369119682200E+001  1.199277236938300E+001 
 1.228899384690700E+001  1.259253199492600E+001  1.290356753520000E+001  1.322228565332000E+001 
 1.354887610895700E+001  1.388353334884800E+001  1.422645662256500E+001  1.457785010114200E+001 
 1.493792299864000E+001  1.530688969670700E+001  1.568496987221500E+001  1.607238862805900E+001 
 1.646937662717200E+001  1.687617022986300E+001  1.729301163454100E+001  1.772014902191400E+001 
 1.815783670275500E+001  1.860633526931300E+001  1.906591175046500E+001  1.953683977070200E+001 
 2.001939971303800E+001  2.051387888595000E+001  2.102057169443300E+001  2.153977981528600E+001 
 2.207181237672300E+001  2.261698614242800E+001  2.317562570014600E+001  2.374806365494000E+001 
 2.433464082721700E+001  2.493570645564900E+001  2.555161840510400E+001  2.618274337971000E+001 
 2.682945714118800E+001  2.749214473257600E+001  2.817120070747000E+001  2.886702936494500E+001 
 2.958004499025900E+001  3.031067210151800E+001  3.105934570242600E+001  3.182651154127600E+001 
 3.261262637634500E+001  3.341815824784100E+001  3.424358675656300E+001  3.508940334945000E+001 
 3.595611161218100E+001  3.684422756900200E+001  3.775427998995700E+001  3.868681070570800E+001 
 3.964237493013900E+001  4.062154159091400E+001  4.162489366821000E+001  4.265302854181400E+001 
 4.370655834679700E+001  4.478611033796300E+001  4.589232726331100E+001  4.702586774671400E+001 
 4.818740668005800E+001  4.937763562505600E+001  5.059726322499500E+001  5.184701562665200E+001 
 5.312763691263000E+001  5.443988954437200E+001  5.578455481611800E+001  5.716243332007600E+001 
 5.857434542308200E+001  6.002113175503200E+001  6.150365370938200E+001  6.302279395600300E+001 
 6.457945696671700E+001  6.617456955379400E+001  6.780908142177300E+001  6.948396573289099E+001 
 7.120021968649300E+001  7.295886511275000E+001  7.476094908103499E+001  7.660754452333600E+001 
 7.849975087306299E+001
    </PP_R>
    <PP_RAB type="real" size="541" columns="4">
 3.630935539216443E-006  3.720619647035207E-006  3.812518952317070E-006  3.906688170439153E-006 
 4.003183368249030E-006  4.102061997444739E-006  4.203382928781724E-006  4.307206487122531E-006 
 4.413594487354429E-006  4.522610271192236E-006  4.634318744890547E-006  4.748786417889493E-006 
 4.866081442411363E-006  4.986273654038842E-006  5.109434613293630E-006  5.235637648241822E-006 
 5.364957898153601E-006  5.497472358237987E-006  5.633259925486325E-006  5.772401445645968E-006 
 5.914979761353446E-006  6.061079761458839E-006  6.210788431566724E-006  6.364194905826402E-006 
 6.521390520000430E-006  6.682468865844401E-006  6.847525846830683E-006  7.016659735247560E-006 
 7.189971230708216E-006  7.367563520106619E-006  7.549542339053271E-006  7.736016034827885E-006 
 7.927095630888053E-006  8.122894892970980E-006  8.323530396827326E-006  8.529121597629119E-006 
 8.739790901090558E-006  8.955663736347527E-006  9.176868630635173E-006  9.403537285811807E-006 
 9.635804656771340E-006  9.873809031793597E-006  1.011769211487903E-005  1.036759911011647E-005 
 1.062367880813629E-005  1.088608367469741E-005  1.115496994146239E-005  1.143049769901643E-005 
 1.171283099218233E-005  1.200213791768908E-005  1.229859072425609E-005  1.260236591514515E-005 
 1.291364435324925E-005  1.323261136877449E-005  1.355945686958312E-005  1.389437545426192E-005 
 1.423756652798211E-005  1.458923442122340E-005  1.494958851142759E-005  1.531884334765987E-005 
 1.569721877834706E-005  1.608494008217228E-005  1.648223810220188E-005  1.688934938332629E-005 
 1.730651631309451E-005  1.773398726602795E-005  1.817201675149863E-005  1.862086556526079E-005 
 1.908080094472272E-005  1.955209672805743E-005  2.003503351724030E-005  2.052989884511606E-005 
 2.103698734659059E-005  2.155660093405144E-005  2.208904897712234E-005  2.263464848685742E-005 
 2.319372430448263E-005  2.376660929480342E-005  2.435364454438497E-005  2.495517956463079E-005 
 2.557157249987713E-005  2.620319034062552E-005  2.685040914203820E-005  2.751361424784583E-005 
 2.819320051976744E-005  2.888957257260577E-005  2.960314501514984E-005  3.033434269702366E-005 
 3.108360096163989E-005  3.185136590539252E-005  3.263809464325694E-005  3.344425558094386E-005 
 3.427032869379488E-005  3.511680581253202E-005  3.598419091610025E-005  3.687300043172759E-005 
 3.778376354239290E-005  3.871702250188949E-005  3.967333295768434E-005  4.065326428173916E-005 
 4.165739990950044E-005  4.268633768726351E-005  4.374069022814012E-005  4.482108527677324E-005 
 4.592816608311168E-005  4.706259178536379E-005  4.822503780246241E-005  4.941619623618223E-005 
 5.063677628321738E-005  5.188750465741159E-005  5.316912602245128E-005  5.448240343520409E-005 
 5.582811880005453E-005  5.720707333441486E-005  5.862008804577449E-005  6.006800422050546E-005 
 6.155168392475298E-005  6.307201051769444E-005  6.462988917748141E-005  6.622624744016474E-005 
 6.786203575193727E-005  6.953822803500869E-005  7.125582226747370E-005  7.301584107748098E-005 
 7.481933235209577E-005  7.666736986119277E-005  7.856105389676246E-005  8.050151192801392E-005 
 8.248989927263519E-005  8.452739978467004E-005  8.661522655935018E-005  8.875462265536603E-005 
 9.094686183495437E-005  9.319324932227611E-005  9.549512258053797E-005  9.785385210827801E-005 
 1.002708422553514E-004  1.027475320590587E-004  1.052853961009180E-004  1.078859453846103E-004 
 1.105507282356100E-004  1.132813312230298E-004  1.160793801042382E-004  1.189465407928125E-004 
 1.218845203503945E-004  1.248950680030502E-004  1.279799761827257E-004  1.311410815944374E-004 
 1.343802663098205E-004  1.376994588876729E-004  1.411006355221981E-004  1.445858212195981E-004 
 1.481570910037222E-004  1.518165711515142E-004  1.555664404589566E-004  1.594089315382929E-004 
 1.633463321472873E-004  1.673809865513260E-004  1.715152969191448E-004  1.757517247530478E-004 
 1.800927923544476E-004  1.845410843256029E-004  1.890992491084432E-004  1.937700005614217E-004 
 1.985561195752906E-004  2.034604557287986E-004  2.084859289853011E-004  2.136355314312374E-004 
 2.189123290575880E-004  2.243194635853113E-004  2.298601543358675E-004  2.355377001479645E-004 
 2.413554813416189E-004  2.473169617307667E-004  2.534256906854972E-004  2.596853052454326E-004 
 2.660995322850077E-004  2.726721907324519E-004  2.794071938435416E-004  2.863085515314721E-004 
 2.933803727542887E-004  3.006268679613172E-004  3.080523515999597E-004  3.156612446844895E-004 
 3.234580774281897E-004  3.314474919406629E-004  3.396342449916059E-004  3.480232108429052E-004 
 3.566193841507105E-004  3.654278829392437E-004  3.744539516478332E-004  3.837029642535375E-004 
 3.931804274706048E-004  4.028919840291355E-004  4.128434160346522E-004  4.230406484107059E-004 
 4.334897524264395E-004  4.441969493113828E-004  4.551686139593796E-004  4.664112787241613E-004 
 4.779316373086635E-004  4.897365487501874E-004  5.018330415043059E-004  5.142283176294683E-004 
 5.269297570749152E-004  5.399449220746584E-004  5.532815616499187E-004  5.669476162226568E-004 
 5.809512223433687E-004  5.953007175352435E-004  6.100046452583696E-004  6.250717599962569E-004 
 6.405110324681410E-004  6.563316549701179E-004  6.725430468478680E-004  6.891548601050190E-004 
 7.061769851496122E-004  7.236195566828194E-004  7.414929597328649E-004  7.598078358382731E-004 
 7.785750893834709E-004  7.978058940912552E-004  8.175116996753006E-004  8.377042386572918E-004 
 8.583955333521245E-004  8.795979030259279E-004  9.013239712306717E-004  9.235866733200631E-004 
 9.463992641510536E-004  9.697753259755918E-004  9.937287765271858E-004  1.018273877307422E-003 
 1.043425242076904E-003  1.069197845556206E-003  1.095607032341447E-003  1.122668526040283E-003 
 1.150398438633472E-003  1.178813280067728E-003  1.207929968085393E-003  1.237765838297098E-003 
 1.268338654503037E-003  1.299666619269271E-003  1.331768384765226E-003  1.364663063868915E-003 
 1.398370241546484E-003  1.432909986512672E-003  1.468302863179533E-003  1.504569943900081E-003 
 1.541732821514395E-003  1.579813622205822E-003  1.618835018674300E-003  1.658820243635555E-003 
 1.699793103653341E-003  1.741777993313582E-003  1.784799909748428E-003  1.828884467519208E-003 
 1.874057913866950E-003  1.920347144339454E-003  1.967779718804647E-003  2.016383877859118E-003 
 2.066188559642223E-003  2.117223417065385E-003  2.169518835466899E-003  2.223105950702936E-003 
 2.278016667685307E-003  2.334283679377142E-003  2.391940486257753E-003  2.451021416268274E-003 
 2.511561645250197E-003  2.573597217887926E-003  2.637165069169758E-003  2.702303046378197E-003 
 2.769049931623727E-003  2.837445464934674E-003  2.907530367918750E-003  2.979346368006295E-003 
 3.052936223295949E-003  3.128343748011538E-003  3.205613838587267E-003  3.284792500400477E-003 
 3.365926875160274E-003  3.449065268976671E-003  3.534257181120490E-003  3.621553333494277E-003 
 3.711005700831560E-003  3.802667541641993E-003  3.896593429920486E-003  3.992839287639550E-003 
 4.091462418044409E-003  4.192521539769899E-003  4.296076821802332E-003  4.402189919300727E-003 
 4.510924010307659E-003  4.622343833362171E-003  4.736515726046233E-003  4.853507664479610E-003 
 4.973389303792208E-003  5.096232019595821E-003  5.222108950479955E-003  5.351095041556840E-003 
 5.483267089083213E-003  5.618703786183507E-003  5.757485769702274E-003  5.899695668213882E-003 
 6.045418151218799E-003  6.194739979553991E-003  6.347750057048957E-003  6.504539483458102E-003 
 6.665201608699496E-003  6.829832088434397E-003  6.998528941018542E-003  7.171392605861791E-003 
 7.348526003226645E-003  7.530034595506357E-003  7.716026450015363E-003  7.906612303330564E-003 
 8.101905627222988E-003  8.302022696215222E-003  8.507082656811701E-003  8.717207598435037E-003 
 8.932522626116440E-003  9.153155934981519E-003  9.379238886575547E-003  9.610906087073897E-003 
 9.848295467424681E-003  1.009154836546999E-002  1.034080961009720E-002  1.059622760746645E-002 
 1.085795442937096E-002  1.112614590377643E-002  1.140096170759971E-002  1.168256546177752E-002 
 1.197112482868332E-002  1.226681161195182E-002  1.256980185876699E-002  1.288027596467862E-002 
 1.319841878100622E-002  1.352441972489689E-002  1.385847289210185E-002  1.420077717253676E-002 
 1.455153636869849E-002  1.491095931700530E-002  1.527926001213547E-002  1.565665773443520E-002 
 1.604337718047564E-002  1.643964859683346E-002  1.684570791717512E-002  1.726179690272941E-002 
 1.768816328622678E-002  1.812506091939668E-002  1.857274992410578E-002  1.903149684723119E-002 
 1.950157481935775E-002  1.998326371739599E-002  2.047685033121556E-002  2.098262853439656E-002 
 2.150089945919631E-002  2.203197167583846E-002  2.257616137623168E-002  2.313379256222461E-002 
 2.370519723851154E-002  2.429071561030278E-002  2.489069628587807E-002  2.550549648413744E-002 
 2.613548224729767E-002  2.678102865880524E-002  2.744252006667781E-002  2.812035031232385E-002 
 2.881492296503780E-002  2.952665156227553E-002  3.025595985586377E-002  3.100328206430232E-002 
 3.176906313129060E-002  3.255375899063477E-002  3.335783683770378E-002  3.418177540759299E-002 
 3.502606526016119E-002  3.589120907208748E-002  3.677772193616760E-002  3.768613166799127E-002 
 3.861697912019071E-002  3.957081850446062E-002  4.054821772152029E-002  4.154975869924236E-002 
 4.257603773911165E-002  4.362766587126796E-002  4.470526921828883E-002  4.580948936798081E-002 
 4.694098375536943E-002  4.810042605412702E-002  4.928850657766542E-002  5.050593269013257E-002 
 5.175342922757890E-002  5.303173892950110E-002  5.434162288105830E-002  5.568386096622192E-002 
 5.705925233208601E-002  5.846861586468940E-002  5.991279067654742E-002  6.139263660625669E-002 
 6.290903473043154E-002  6.446288788827476E-002  6.605512121911440E-002  6.768668271322642E-002 
 6.935854377624298E-002  7.107169980751527E-002  7.282717079276230E-002  7.462600191134265E-002 
 7.646926415855398E-002  7.835805498327050E-002  8.029349894135725E-002  8.227674836520782E-002 
 8.430898404982777E-002  8.639141595585879E-002  8.852528392996825E-002  9.071185844303851E-002 
 9.295244134658295E-002  9.524836664784250E-002  9.760100130404592E-002  1.000117460362558E-001 
 1.024820361633493E-001  1.050133424565853E-001  1.076071720152625E-001  1.102650691640401E-001 
 1.129886163723912E-001  1.157794351967899E-001  1.186391872461513E-001  1.215695751711299E-001 
 1.245723436778568E-001  1.276492805666990E-001  1.308022177966970E-001  1.340330325762765E-001 
 1.373436484809096E-001  1.407360365983893E-001  1.442122167023690E-001  1.477742584549182E-001 
 1.514242826387531E-001  1.551644624199314E-001  1.589970246417020E-001  1.629242511503537E-001 
 1.669484801537666E-001  1.710721076135650E-001  1.752975886716198E-001  1.796274391118093E-001 
 1.840642368578698E-001  1.886106235082604E-001  1.932693059089144E-001  1.980430577648633E-001 
 2.029347212916559E-001  2.079472089075607E-001  2.130835049675763E-001  2.183466675402765E-001 
 2.237398302285211E-001  2.292662040351659E-001  2.349290792748327E-001  2.407318275329230E-001 
 2.466779036729939E-001  2.527708478937128E-001  2.590142878366753E-001  2.654119407462423E-001 
 2.719676156826700E-001  2.786852157900315E-001  2.855687406200611E-001  2.926222885133643E-001 
 2.998500590396503E-001  3.072563554979393E-001  3.148455874787220E-001  3.226222734894602E-001 
 3.305910436446497E-001  3.387566424226667E-001  3.471239314905177E-001  3.556978925983248E-001 
 3.644836305454984E-001  3.734863762199866E-001  3.827114897126041E-001  3.921644635085125E-001 
 4.018509257571714E-001  4.117766436233699E-001  4.219475267208765E-001  4.323696306308782E-001 
 4.430491605074541E-001  4.539924747719871E-001  4.652060888988543E-001  4.766966792946686E-001 
 4.884710872732386E-001  5.005363231288867E-001  5.128995703101711E-001  5.255681896968446E-001 
 5.385497239823429E-001  5.518519021647054E-001  5.654826441481743E-001  5.794500654586439E-001 
 5.937624820754719E-001  6.084284153827297E-001  6.234565972426946E-001  6.388559751945875E-001 
 6.546357177818733E-001  6.708052200111017E-001  6.873741089453606E-001  7.043522494363229E-001 
 7.217497499973967E-001  7.395769688223227E-001  7.578445199522463E-001  7.765632795950687E-001 
 7.957443926010542E-001  8.153992790983071E-001  8.355396412920433E-001  8.561774704319542E-001 
 8.773250539516133E-001  8.989949827842214E-001  9.212001588590074E-001  9.439538027828021E-001 
 9.672694617115376E-001  9.911610174158264E-001  1.015642694546008E+000  1.040729069101275E+000 
 1.066435077108081E+000  1.092776023512654E+000  1.119767591293424E+000  1.147425850798352E+000 
 1.175767269313075E+000  1.204808720865122E+000  1.234567496270494E+000  1.265061313428366E+000 
 1.296308327870039E+000  1.328327143568430E+000  1.361136824014570E+000  1.394756903567727E+000 
 1.429207399085853E+000  1.464508821843271E+000  1.500682189742817E+000  1.537749039829446E+000 
 1.575731441113252E+000  1.614652007708727E+000  1.654533912299139E+000  1.695400899932933E+000 
 1.737277302161266E+000  1.780188051524665E+000  1.824158696397326E+000  1.869215416198326E+000 
 1.915385036978439E+000
    </PP_RAB>
  </PP_MESH>
  <PP_LOCAL type="real" size="541" columns="4">
-5.545253445957000E+000 -5.545253466260400E+000 -5.545253486069800E+000 -5.545253505396800E+000 
-5.545253524252600E+000 -5.545253542648800E+000 -5.545253560595800E+000 -5.545253578104200E+000 
-5.545253595184400E+000 -5.545253611846400E+000 -5.545253628099800E+000 -5.545253643954200E+000 
-5.545253659419000E+000 -5.545253674503000E+000 -5.545253689215000E+000 -5.545253703563800E+000 
-5.545253717557200E+000 -5.545253731203800E+000 -5.545253744511400E+000 -5.545253757487400E+000 
-5.545253770139600E+000 -5.545253782475000E+000 -5.545253794500600E+000 -5.545253806223600E+000 
-5.545253817650200E+000 -5.545253828787200E+000 -5.545253839640800E+000 -5.545253850216800E+000 
-5.545253860521600E+000 -5.545253870560400E+000 -5.545253880339200E+000 -5.545253889863000E+000 
-5.545253899137200E+000 -5.545253908166600E+000 -5.545253916956400E+000 -5.545253925510800E+000 
-5.545253933834800E+000 -5.545253941932400E+000 -5.545253949807800E+000 -5.545253957465000E+000 
-5.545253964908000E+000 -5.545253972140400E+000 -5.545253979165800E+000 -5.545253985987400E+000 
-5.545253992608200E+000 -5.545253999031800E+000 -5.545254005260400E+000 -5.545254011297200E+000 
-5.545254017144600E+000 -5.545254022804800E+000 -5.545254028280200E+000 -5.545254033572800E+000 
-5.545254038684400E+000 -5.545254043616600E+000 -5.545254048371000E+000 -5.545254052949000E+000 