
     Program PWSCF v.7.1 starts on  1Apr2024 at 10:18: 7 

     This program is part of the open-source Quantum ESPRESSO suite
     for quantum simulation of materials; please cite
         "P. Giannozzi et al., J. Phys.:Condens. Matter 21 395502 (2009);
         "P. Giannozzi et al., J. Phys.:Condens. Matter 29 465901 (2017);
         "P. Giannozzi et al., J. Chem. Phys. 152 154105 (2020);
          URL http://www.quantum-espresso.org", 
     in publications or presentations arising from this work. More details at
     http://www.quantum-espresso.org/quote

     Parallel version (MPI & OpenMP), running on       4 processor cores
     Number of MPI processes:                 4
     Threads/MPI process:                     1

     MPI processes distributed on     1 nodes
     313605 MiB available memory on the printing compute node when the environment starts

     Waiting for input...
     Reading input from standard input

     Current dimensions of program PWSCF are:
     Max number of different atomic species (ntypx) = 10
     Max number of k-points (npk) =  40000
     Max angular momentum in pseudopotentials (lmaxx) =  4

     Atomic positions and unit cell read from directory:
     ./LiF.save/
     Atomic positions from file used, from input discarded

     file Li.LDA.cpi.UPF: wavefunction(s)  2p 3d 3f renormalized
     file F.LDA.cpi.UPF: wavefunction(s)  3d 4f renormalized

     R & G space division:  proc/nbgrp/npool/nimage =       4
     Subspace diagonalization in iterative solution of the eigenvalue problem:
     a serial algorithm will be used


     Parallelization info
     --------------------
     sticks:   dense  smooth     PW     G-vecs:    dense   smooth      PW
     Min         162     162     52                 2753     2753     526
     Max         163     163     53                 2757     2757     529
     Sum         649     649    211                11017    11017    2109

     Using Slab Decomposition



     bravais-lattice index     =            2
     lattice parameter (alat)  =       7.7035  a.u.
     unit-cell volume          =     114.2879 (a.u.)^3
     number of atoms/cell      =            2
     number of atomic types    =            2
     number of electrons       =         8.00
     number of Kohn-Sham states=           10
     kinetic-energy cutoff     =      80.0000  Ry
     charge density cutoff     =     320.0000  Ry
     Exchange-correlation= SLA  PZ   NOGX NOGC
                           (   1   1   0   0   0   0   0)

     celldm(1)=   7.703476  celldm(2)=   0.000000  celldm(3)=   0.000000
     celldm(4)=   0.000000  celldm(5)=   0.000000  celldm(6)=   0.000000

     crystal axes: (cart. coord. in units of alat)
               a(1) = (  -0.500000   0.000000   0.500000 )  
               a(2) = (   0.000000   0.500000   0.500000 )  
               a(3) = (  -0.500000   0.500000   0.000000 )  

     reciprocal axes: (cart. coord. in units 2 pi/alat)
               b(1) = ( -1.000000 -1.000000  1.000000 )  
               b(2) = (  1.000000  1.000000  1.000000 )  
               b(3) = ( -1.000000  1.000000 -1.000000 )  


     PseudoPot. # 1 for Li read from file:
     ../psps/Li.LDA.cpi.UPF
     MD5 check sum: 0f19fbf76817a66445c6a3c93a4d1b75
     Pseudo is Norm-conserving + core correction, Zval =  1.0
     Generated by new atomic code, or converted to UPF format
     Using radial grid of  433 points,  3 beta functions with: 
                l(1) =   0
                l(2) =   1
                l(3) =   2

     PseudoPot. # 2 for F  read from file:
     ../psps/F.LDA.cpi.UPF
     MD5 check sum: 1675c15be16d9b2e493cc71bbe4b150f
     Pseudo is Norm-conserving, Zval =  7.0
     Generated by new atomic code, or converted to UPF format
     Using radial grid of  477 points,  3 beta functions with: 
                l(1) =   0
                l(2) =   1
                l(3) =   2

     atomic species   valence    mass     pseudopotential
        Li             1.00     6.94100     Li( 1.00)
        F              7.00    18.99840     F ( 1.00)

     48 Sym. Ops., with inversion, found


                                    s                        frac. trans.

      isym =  1     identity                                     

 cryst.   s( 1) = (     1          0          0      )
                  (     0          1          0      )
                  (     0          0          1      )

 cart.    s( 1) = (  1.0000000  0.0000000  0.0000000 )
                  (  0.0000000  1.0000000  0.0000000 )
                  (  0.0000000  0.0000000  1.0000000 )


      isym =  2     180 deg rotation - cart. axis [0,0,1]        

 cryst.   s( 2) = (     0          1         -1      )
                  (     1          0         -1      )
                  (     0          0         -1      )

 cart.    s( 2) = ( -1.0000000  0.0000000  0.0000000 )
                  (  0.0000000 -1.0000000  0.0000000 )
                  (  0.0000000  0.0000000  1.0000000 )


      isym =  3     180 deg rotation - cart. axis [0,1,0]        

 cryst.   s( 3) = (    -1          0          0      )
                  (    -1          0          1      )
                  (    -1          1          0      )

 cart.    s( 3) = ( -1.0000000  0.0000000  0.0000000 )
                  (  0.0000000  1.0000000  0.0000000 )
                  (  0.0000000  0.0000000 -1.0000000 )


      isym =  4     180 deg rotation - cart. axis [1,0,0]        

 cryst.   s( 4) = (     0         -1          1      )
                  (     0         -1          0      )
                  (     1         -1          0      )

 cart.    s( 4) = (  1.0000000  0.0000000  0.0000000 )
                  (  0.0000000 -1.0000000  0.0000000 )
                  (  0.0000000  0.0000000 -1.0000000 )


      isym =  5     180 deg rotation - cart. axis [1,1,0]        

 cryst.   s( 5) = (     0         -1          0      )
                  (    -1          0          0      )
                  (     0          0         -1      )

 cart.    s( 5) = (  0.0000000  1.0000000  0.0000000 )
                  (  1.0000000  0.0000000  0.0000000 )
                  (  0.0000000  0.0000000 -1.0000000 )


      isym =  6     180 deg rotation - cart. axis [1,-1,0]       

 cryst.   s( 6) = (    -1          0          1      )
                  (     0         -1          1      )
                  (     0          0          1      )

 cart.    s( 6) = (  0.0000000 -1.0000000  0.0000000 )
                  ( -1.0000000  0.0000000  0.0000000 )
                  (  0.0000000  0.0000000 -1.0000000 )


      isym =  7      90 deg rotation - cart. axis [0,0,-1]       

 cryst.   s( 7) = (     0          1          0      )
                  (     0          1         -1      )
                  (    -1          1          0      )

 cart.    s( 7) = (  0.0000000  1.0000000  0.0000000 )
                  ( -1.0000000  0.0000000  0.0000000 )
                  (  0.0000000  0.0000000  1.0000000 )


      isym =  8      90 deg rotation - cart. axis [0,0,1]        

 cryst.   s( 8) = (     1          0         -1      )
                  (     1          0          0      )
                  (     1         -1          0      )

 cart.    s( 8) = (  0.0000000 -1.0000000  0.0000000 )
                  (  1.0000000  0.0000000  0.0000000 )
                  (  0.0000000  0.0000000  1.0000000 )


      isym =  9     180 deg rotation - cart. axis [1,0,1]        

 cryst.   s( 9) = (    -1          0          0      )
                  (     0          0         -1      )
                  (     0         -1          0      )

 cart.    s( 9) = (  0.0000000  0.0000000  1.0000000 )
                  (  0.0000000 -1.0000000  0.0000000 )
                  (  1.0000000  0.0000000  0.0000000 )


      isym = 10     180 deg rotation - cart. axis [-1,0,1]       

 cryst.   s(10) = (     1          0          0      )
                  (     1         -1          0      )
                  (     1          0         -1      )

 cart.    s(10) = (  0.0000000  0.0000000 -1.0000000 )
                  (  0.0000000 -1.0000000  0.0000000 )
                  ( -1.0000000  0.0000000  0.0000000 )


      isym = 11      90 deg rotation - cart. axis [0,1,0]        

 cryst.   s(11) = (     0          1         -1      )
                  (    -1          1          0      )
                  (     0          1          0      )

 cart.    s(11) = (  0.0000000  0.0000000  1.0000000 )
                  (  0.0000000  1.0000000  0.0000000 )
                  ( -1.0000000  0.0000000  0.0000000 )


      isym = 12      90 deg rotation - cart. axis [0,-1,0]       

 cryst.   s(12) = (     0         -1          1      )
                  (     0          0          1      )
                  (    -1          0          1      )

 cart.    s(12) = (  0.0000000  0.0000000 -1.0000000 )
                  (  0.0000000  1.0000000  0.0000000 )
                  (  1.0000000  0.0000000  0.0000000 )


      isym = 13     180 deg rotation - cart. axis [0,1,1]        

 cryst.   s(13) = (    -1          1          0      )
                  (     0          1          0      )
                  (     0          1         -1      )

 cart.    s(13) = ( -1.0000000  0.0000000  0.0000000 )
                  (  0.0000000  0.0000000  1.0000000 )
                  (  0.0000000  1.0000000  0.0000000 )


      isym = 14     180 deg rotation - cart. axis [0,1,-1]       

 cryst.   s(14) = (     0          0         -1      )
                  (     0         -1          0      )
                  (    -1          0          0      )

 cart.    s(14) = ( -1.0000000  0.0000000  0.0000000 )
                  (  0.0000000  0.0000000 -1.0000000 )
                  (  0.0000000 -1.0000000  0.0000000 )


      isym = 15      90 deg rotation - cart. axis [-1,0,0]       

 cryst.   s(15) = (     0          0          1      )
                  (    -1          0          1      )
                  (     0         -1          1      )

 cart.    s(15) = (  1.0000000  0.0000000  0.0000000 )
                  (  0.0000000  0.0000000  1.0000000 )
                  (  0.0000000 -1.0000000  0.0000000 )


      isym = 16      90 deg rotation - cart. axis [1,0,0]        

 cryst.   s(16) = (     1         -1          0      )
                  (     1          0         -1      )
                  (     1          0          0      )

 cart.    s(16) = (  1.0000000  0.0000000  0.0000000 )
                  (  0.0000000  0.0000000 -1.0000000 )
                  (  0.0000000  1.0000000  0.0000000 )


      isym = 17     120 deg rotation - cart. axis [-1,-1,-1]     

 cryst.   s(17) = (    -1          0          1      )
                  (    -1          1          0      )
                  (    -1          0          0      )

 cart.    s(17) = (  0.0000000  1.0000000  0.0000000 )
                  (  0.0000000  0.0000000  1.0000000 )
                  (  1.0000000  0.0000000  0.0000000 )


      isym = 18     120 deg rotation - cart. axis [-1,1,1]       

 cryst.   s(18) = (     0          1          0      )
                  (     0          0          1      )
                  (     1          0          0      )

 cart.    s(18) = (  0.0000000 -1.0000000  0.0000000 )
                  (  0.0000000  0.0000000  1.0000000 )
                  ( -1.0000000  0.0000000  0.0000000 )


      isym = 19     120 deg rotation - cart. axis [1,1,-1]       

 cryst.   s(19) = (     1          0         -1      )
                  (     0          0         -1      )
                  (     0          1         -1      )

 cart.    s(19) = (  0.0000000  1.0000000  0.0000000 )
                  (  0.0000000  0.0000000 -1.0000000 )
                  ( -1.0000000  0.0000000  0.0000000 )


      isym = 20     120 deg rotation - cart. axis [1,-1,1]       

 cryst.   s(20) = (     0         -1          0      )
                  (     1         -1          0      )
                  (     0         -1          1      )

 cart.    s(20) = (  0.0000000 -1.0000000  0.0000000 )
                  (  0.0000000  0.0000000 -1.0000000 )
                  (  1.0000000  0.0000000  0.0000000 )


      isym = 21     120 deg rotation - cart. axis [1,1,1]        

 cryst.   s(21) = (     0          0         -1      )
                  (     0          1         -1      )
                  (     1          0         -1      )

 cart.    s(21) = (  0.0000000  0.0000000  1.0000000 )
                  (  1.0000000  0.0000000  0.0000000 )
                  (  0.0000000  1.0000000  0.0000000 )


      isym = 22     120 deg rotation - cart. axis [-1,1,-1]      

 cryst.   s(22) = (    -1          1          0      )
                  (    -1          0          0      )
                  (    -1          0          1      )

 cart.    s(22) = (  0.0000000  0.0000000  1.0000000 )
                  ( -1.0000000  0.0000000  0.0000000 )
                  (  0.0000000 -1.0000000  0.0000000 )


      isym = 23     120 deg rotation - cart. axis [1,-1,-1]      

 cryst.   s(23) = (     0          0          1      )
                  (     1          0          0      )
                  (     0          1          0      )

 cart.    s(23) = (  0.0000000  0.0000000 -1.0000000 )
                  ( -1.0000000  0.0000000  0.0000000 )
                  (  0.0000000  1.0000000  0.0000000 )


      isym = 24     120 deg rotation - cart. axis [-1,-1,1]      

 cryst.   s(24) = (     1         -1          0      )
                  (     0         -1          1      )
                  (     0         -1          0      )

 cart.    s(24) = (  0.0000000  0.0000000 -1.0000000 )
                  (  1.0000000  0.0000000  0.0000000 )
                  (  0.0000000 -1.0000000  0.0000000 )


      isym = 25     inversion                                    

 cryst.   s(25) = (    -1          0          0      )
                  (     0         -1          0      )
                  (     0          0         -1      )

 cart.    s(25) = ( -1.0000000  0.0000000  0.0000000 )
                  (  0.0000000 -1.0000000  0.0000000 )
                  (  0.0000000  0.0000000 -1.0000000 )


      isym = 26     inv. 180 deg rotation - cart. axis [0,0,1]   

 cryst.   s(26) = (     0         -1          1      )
                  (    -1          0          1      )
                  (     0          0          1      )

 cart.    s(26) = (  1.0000000  0.0000000  0.0000000 )
                  (  0.0000000  1.0000000  0.0000000 )
                  (  0.0000000  0.0000000 -1.0000000 )


      isym = 27     inv. 180 deg rotation - cart. axis [0,1,0]   

 cryst.   s(27) = (     1          0          0      )
                  (     1          0         -1      )
                  (     1         -1          0      )

 cart.    s(27) = (  1.0000000  0.0000000  0.0000000 )
                  (  0.0000000 -1.0000000  0.0000000 )
                  (  0.0000000  0.0000000  1.0000000 )


      isym = 28     inv. 180 deg rotation - cart. axis [1,0,0]   

 cryst.   s(28) = (     0          1         -1      )
                  (     0          1          0      )
                  (    -1          1          0      )

 cart.    s(28) = ( -1.0000000  0.0000000  0.0000000 )
                  (  0.0000000  1.0000000  0.0000000 )
                  (  0.0000000  0.0000000  1.0000000 )


      isym = 29     inv. 180 deg rotation - cart. axis [1,1,0]   

 cryst.   s(29) = (     0          1          0      )
                  (     1          0          0      )
                  (     0          0          1      )

 cart.    s(29) = (  0.0000000 -1.0000000  0.0000000 )
                  ( -1.0000000  0.0000000  0.0000000 )
                  (  0.0000000  0.0000000  1.0000000 )


      isym = 30     inv. 180 deg rotation - cart. axis [1,-1,0]  

 cryst.   s(30) = (     1          0         -1      )
                  (     0          1         -1      )
                  (     0          0         -1      )

 cart.    s(30) = (  0.0000000  1.0000000  0.0000000 )
                  (  1.0000000  0.0000000  0.0000000 )
                  (  0.0000000  0.0000000  1.0000000 )


      isym = 31     inv.  90 deg rotation - cart. axis [0,0,-1]  

 cryst.   s(31) = (     0         -1          0      )
                  (     0         -1          1      )
                  (     1         -1          0      )

 cart.    s(31) = (  0.0000000 -1.0000000  0.0000000 )
                  (  1.0000000  0.0000000  0.0000000 )
                  (  0.0000000  0.0000000 -1.0000000 )


      isym = 32     inv.  90 deg rotation - cart. axis [0,0,1]   

 cryst.   s(32) = (    -1          0          1      )
                  (    -1          0          0      )
                  (    -1          1          0      )

 cart.    s(32) = (  0.0000000  1.0000000  0.0000000 )
                  ( -1.0000000  0.0000000  0.0000000 )
                  (  0.0000000  0.0000000 -1.0000000 )


      isym = 33     inv. 180 deg rotation - cart. axis [1,0,1]   

 cryst.   s(33) = (     1          0          0      )
                  (     0          0          1      )
                  (     0          1          0      )

 cart.    s(33) = (  0.0000000  0.0000000 -1.0000000 )
                  (  0.0000000  1.0000000  0.0000000 )
                  ( -1.0000000  0.0000000  0.0000000 )


      isym = 34     inv. 180 deg rotation - cart. axis [-1,0,1]  

 cryst.   s(34) = (    -1          0          0      )
                  (    -1          1          0      )
                  (    -1          0          1      )

 cart.    s(34) = (  0.0000000  0.0000000  1.0000000 )
                  (  0.0000000  1.0000000  0.0000000 )
                  (  1.0000000  0.0000000  0.0000000 )


      isym = 35     inv.  90 deg rotation - cart. axis [0,1,0]   

 cryst.   s(35) = (     0         -1          1      )
                  (     1         -1          0      )
                  (     0         -1          0      )

 cart.    s(35) = (  0.0000000  0.0000000 -1.0000000 )
                  (  0.0000000 -1.0000000  0.0000000 )
                  (  1.0000000  0.0000000  0.0000000 )


      isym = 36     inv.  90 deg rotation - cart. axis [0,-1,0]  

 cryst.   s(36) = (     0          1         -1      )
                  (     0          0         -1      )
                  (     1          0         -1      )

 cart.    s(36) = (  0.0000000  0.0000000  1.0000000 )
                  (  0.0000000 -1.0000000  0.0000000 )
                  ( -1.0000000  0.0000000  0.0000000 )


      isym = 37     inv. 180 deg rotation - cart. axis [0,1,1]   

 cryst.   s(37) = (     1         -1          0      )
                  (     0         -1          0      )
                  (     0         -1          1      )

 cart.    s(37) = (  1.0000000  0.0000000  0.0000000 )
                  (  0.0000000  0.0000000 -1.0000000 )
                  (  0.0000000 -1.0000000  0.0000000 )


      isym = 38     inv. 180 deg rotation - cart. axis [0,1,-1]  

 cryst.   s(38) = (     0          0          1      )
                  (     0          1          0      )
                  (     1          0          0      )

 cart.    s(38) = (  1.0000000  0.0000000  0.0000000 )
                  (  0.0000000  0.0000000  1.0000000 )
                  (  0.0000000  1.0000000  0.0000000 )


      isym = 39     inv.  90 deg rotation - cart. axis [-1,0,0]  

 cryst.   s(39) = (     0          0         -1      )
                  (     1          0         -1      )
                  (     0          1         -1      )

 cart.    s(39) = ( -1.0000000  0.0000000  0.0000000 )
                  (  0.0000000  0.0000000 -1.0000000 )
                  (  0.0000000  1.0000000  0.0000000 )


      isym = 40     inv.  90 deg rotation - cart. axis [1,0,0]   

 cryst.   s(40) = (    -1          1          0      )
                  (    -1          0          1      )
                  (    -1          0          0      )

 cart.    s(40) = ( -1.0000000  0.0000000  0.0000000 )
                  (  0.0000000  0.0000000  1.0000000 )
                  (  0.0000000 -1.0000000  0.0000000 )


      isym = 41     inv. 120 deg rotation - cart. axis [-1,-1,-1]

 cryst.   s(41) = (     1          0         -1      )
                  (     1         -1          0      )
                  (     1          0          0      )

 cart.    s(41) = (  0.0000000 -1.0000000  0.0000000 )
                  (  0.0000000  0.0000000 -1.0000000 )
                  ( -1.0000000  0.0000000  0.0000000 )


      isym = 42     inv. 120 deg rotation - cart. axis [-1,1,1]  

 cryst.   s(42) = (     0         -1          0      )
                  (     0          0         -1      )
                  (    -1          0          0      )

 cart.    s(42) = (  0.0000000  1.0000000  0.0000000 )
                  (  0.0000000  0.0000000 -1.0000000 )
                  (  1.0000000  0.0000000  0.0000000 )


      isym = 43     inv. 120 deg rotation - cart. axis [1,1,-1]  

 cryst.   s(43) = (    -1          0          1      )
                  (     0          0          1      )
                  (     0         -1          1      )

 cart.    s(43) = (  0.0000000 -1.0000000  0.0000000 )
                  (  0.0000000  0.0000000  1.0000000 )
                  (  1.0000000  0.0000000  0.0000000 )


      isym = 44     inv. 120 deg rotation - cart. axis [1,-1,1]  

 cryst.   s(44) = (     0          1          0      )
                  (    -1          1          0      )
                  (     0          1         -1      )

 cart.    s(44) = (  0.0000000  1.0000000  0.0000000 )
                  (  0.0000000  0.0000000  1.0000000 )
                  ( -1.0000000  0.0000000  0.0000000 )


      isym = 45     inv. 120 deg rotation - cart. axis [1,1,1]   

 cryst.   s(45) = (     0          0          1      )
                  (     0         -1          1      )
                  (    -1          0          1      )

 cart.    s(45) = (  0.0000000  0.0000000 -1.0000000 )
                  ( -1.0000000  0.0000000  0.0000000 )
                  (  0.0000000 -1.0000000  0.0000000 )


      isym = 46     inv. 120 deg rotation - cart. axis [-1,1,-1] 

 cryst.   s(46) = (     1         -1          0      )
                  (     1          0          0      )
                  (     1          0         -1      )

 cart.    s(46) = (  0.0000000  0.0000000 -1.0000000 )
                  (  1.0000000  0.0000000  0.0000000 )
                  (  0.0000000  1.0000000  0.0000000 )


      isym = 47     inv. 120 deg rotation - cart. axis [1,-1,-1] 

 cryst.   s(47) = (     0          0         -1      )
                  (    -1          0          0      )
                  (     0         -1          0      )

 cart.    s(47) = (  0.0000000  0.0000000  1.0000000 )
                  (  1.0000000  0.0000000  0.0000000 )
                  (  0.0000000 -1.0000000  0.0000000 )


      isym = 48     inv. 120 deg rotation - cart. axis [-1,-1,1] 

 cryst.   s(48) = (    -1          1          0      )
                  (     0          1         -1      )
                  (     0          1          0      )

 cart.    s(48) = (  0.0000000  0.0000000  1.0000000 )
                  ( -1.0000000  0.0000000  0.0000000 )
                  (  0.0000000  1.0000000  0.0000000 )


     point group O_h (m-3m) 
     there are 10 classes
     the character table:

       E     8C3   3C2   6C4   6C2'  i     8S6   3s_h  6S4   6s_d 
A_1g   1.00  1.00  1.00  1.00  1.00  1.00  1.00  1.00  1.00  1.00
A_2g   1.00  1.00  1.00 -1.00 -1.00  1.00  1.00  1.00 -1.00 -1.00
E_g    2.00 -1.00  2.00  0.00  0.00  2.00 -1.00  2.00  0.00  0.00
T_1g   3.00  0.00 -1.00  1.00 -1.00  3.00  0.00 -1.00  1.00 -1.00
T_2g   3.00  0.00 -1.00 -1.00  1.00  3.00  0.00 -1.00 -1.00  1.00
A_1u   1.00  1.00  1.00  1.00  1.00 -1.00 -1.00 -1.00 -1.00 -1.00
A_2u   1.00  1.00  1.00 -1.00 -1.00 -1.00 -1.00 -1.00  1.00  1.00
E_u    2.00 -1.00  2.00  0.00  0.00 -2.00  1.00 -2.00  0.00  0.00
T_1u   3.00  0.00 -1.00  1.00 -1.00 -3.00  0.00  1.00 -1.00  1.00
T_2u   3.00  0.00 -1.00 -1.00  1.00 -3.00  0.00  1.00  1.00 -1.00

     the symmetry operations in each class and the name of the first element:

     E        1
          identity                                               
     8C3     17   19   20   18   24   21   22   23
          120 deg rotation - cart. axis [-1,-1,-1]               
     3C2      2    4    3
          180 deg rotation - cart. axis [0,0,1]                  
     6C4      7    8   15   16   12   11
           90 deg rotation - cart. axis [0,0,-1]                 
     6C2'     5    6   14   13   10    9
          180 deg rotation - cart. axis [1,1,0]                  
     i       25
          inversion                                              
     8S6     41   43   44   42   48   45   46   47
          inv. 120 deg rotation - cart. axis [-1,-1,-1]          
     3s_h    26   28   27
          inv. 180 deg rotation - cart. axis [0,0,1]             
     6S4     31   32   39   40   36   35
          inv.  90 deg rotation - cart. axis [0,0,-1]            
     6s_d    29   30   38   37   34   33
          inv. 180 deg rotation - cart. axis [1,1,0]             

   Cartesian axes

     site n.     atom                  positions (alat units)
         1           Li  tau(   1) = (   0.0000000   0.0000000   0.0000000  )
         2           F   tau(   2) = (   0.0000000  -0.5000000   0.0000000  )

   Crystallographic axes

     site n.     atom                  positions (cryst. coord.)
         1           Li  tau(   1) = (  0.0000000  0.0000000  0.0000000  )
         2           F   tau(   2) = (  0.5000000 -0.5000000 -0.5000000  )

     number of k points=   512
                       cart. coord. in units 2pi/alat
        k(    1) = (   0.0000000   0.0000000   0.0000000), wk =   0.0039062
        k(    2) = (  -0.1250000   0.1250000  -0.1250000), wk =   0.0039062
        k(    3) = (  -0.2500000   0.2500000  -0.2500000), wk =   0.0039062
        k(    4) = (  -0.3750000   0.3750000  -0.3750000), wk =   0.0039062
        k(    5) = (  -0.5000000   0.5000000  -0.5000000), wk =   0.0039062
        k(    6) = (  -0.6250000   0.6250000  -0.6250000), wk =   0.0039062
        k(    7) = (  -0.7500000   0.7500000  -0.7500000), wk =   0.0039062
        k(    8) = (  -0.8750000   0.8750000  -0.8750000), wk =   0.0039062
        k(    9) = (   0.1250000   0.1250000   0.1250000), wk =   0.0039062
        k(   10) = (   0.0000000   0.2500000   0.0000000), wk =   0.0039062
        k(   11) = (  -0.1250000   0.3750000  -0.1250000), wk =   0.0039062
        k(   12) = (  -0.2500000   0.5000000  -0.2500000), wk =   0.0039062
        k(   13) = (  -0.3750000   0.6250000  -0.3750000), wk =   0.0039062
        k(   14) = (  -0.5000000   0.7500000  -0.5000000), wk =   0.0039062
        k(   15) = (  -0.6250000   0.8750000  -0.6250000), wk =   0.0039062
        k(   16) = (  -0.7500000   1.0000000  -0.7500000), wk =   0.0039062
        k(   17) = (   0.2500000   0.2500000   0.2500000), wk =   0.0039062
        k(   18) = (   0.1250000   0.3750000   0.1250000), wk =   0.0039062
        k(   19) = (   0.0000000   0.5000000   0.0000000), wk =   0.0039062
        k(   20) = (  -0.1250000   0.6250000  -0.1250000), wk =   0.0039062
        k(   21) = (  -0.2500000   0.7500000  -0.2500000), wk =   0.0039062
        k(   22) = (  -0.3750000   0.8750000  -0.3750000), wk =   0.0039062
        k(   23) = (  -0.5000000   1.0000000  -0.5000000), wk =   0.0039062
        k(   24) = (  -0.6250000   1.1250000  -0.6250000), wk =   0.0039062
        k(   25) = (   0.3750000   0.3750000   0.3750000), wk =   0.0039062
        k(   26) = (   0.2500000   0.5000000   0.2500000), wk =   0.0039062
        k(   27) = (   0.1250000   0.6250000   0.1250000), wk =   0.0039062
        k(   28) = (   0.0000000   0.7500000   0.0000000), wk =   0.0039062
        k(   29) = (  -0.1250000   0.8750000  -0.1250000), wk =   0.0039062
        k(   30) = (  -0.2500000   1.0000000  -0.2500000), wk =   0.0039062
        k(   31) = (  -0.3750000   1.1250000  -0.3750000), wk =   0.0039062
        k(   32) = (  -0.5000000   1.2500000  -0.5000000), wk =   0.0039062
        k(   33) = (   0.5000000   0.5000000   0.5000000), wk =   0.0039062
        k(   34) = (   0.3750000   0.6250000   0.3750000), wk =   0.0039062
        k(   35) = (   0.2500000   0.7500000   0.2500000), wk =   0.0039062
        k(   36) = (   0.1250000   0.8750000   0.1250000), wk =   0.0039062
        k(   37) = (   0.0000000   1.0000000   0.0000000), wk =   0.0039062
        k(   38) = (  -0.1250000   1.1250000  -0.1250000), wk =   0.0039062
        k(   39) = (  -0.2500000   1.2500000  -0.2500000), wk =   0.0039062
        k(   40) = (  -0.3750000   1.3750000  -0.3750000), wk =   0.0039062
        k(   41) = (   0.6250000   0.6250000   0.6250000), wk =   0.0039062
        k(   42) = (   0.5000000   0.7500000   0.5000000), wk =   0.0039062
        k(   43) = (   0.3750000   0.8750000   0.3750000), wk =   0.0039062
        k(   44) = (   0.2500000   1.0000000   0.2500000), wk =   0.0039062
        k(   45) = (   0.1250000   1.1250000   0.1250000), wk =   0.0039062
        k(   46) = (   0.0000000   1.2500000   0.0000000), wk =   0.0039062
        k(   47) = (  -0.1250000   1.3750000  -0.1250000), wk =   0.0039062
        k(   48) = (  -0.2500000   1.5000000  -0.2500000), wk =   0.0039062
        k(   49) = (   0.7500000   0.7500000   0.7500000), wk =   0.0039062
        k(   50) = (   0.6250000   0.8750000   0.6250000), wk =   0.0039062
        k(   51) = (   0.5000000   1.0000000   0.5000000), wk =   0.0039062
        k(   52) = (   0.3750000   1.1250000   0.3750000), wk =   0.0039062
        k(   53) = (   0.2500000   1.2500000   0.2500000), wk =   0.0039062
        k(   54) = (   0.1250000   1.3750000   0.1250000), wk =   0.0039062
        k(   55) = (   0.0000000   1.5000000   0.0000000), wk =   0.0039062
        k(   56) = (  -0.1250000   1.6250000  -0.1250000), wk =   0.0039062
        k(   57) = (   0.8750000   0.8750000   0.8750000), wk =   0.0039062
        k(   58) = (   0.7500000   1.0000000   0.7500000), wk =   0.0039062
        k(   59) = (   0.6250000   1.1250000   0.6250000), wk =   0.0039062
        k(   60) = (   0.5000000   1.2500000   0.5000000), wk =   0.0039062
        k(   61) = (   0.3750000   1.3750000   0.3750000), wk =   0.0039062
        k(   62) = (   0.2500000   1.5000000   0.2500000), wk =   0.0039062
        k(   63) = (   0.1250000   1.6250000   0.1250000), wk =   0.0039062
        k(   64) = (   0.0000000   1.7500000   0.0000000), wk =   0.0039062
        k(   65) = (  -0.1250000  -0.1250000   0.1250000), wk =   0.0039062
        k(   66) = (  -0.2500000   0.0000000   0.0000000), wk =   0.0039062
        k(   67) = (  -0.3750000   0.1250000  -0.1250000), wk =   0.0039062
        k(   68) = (  -0.5000000   0.2500000  -0.2500000), wk =   0.0039062
        k(   69) = (  -0.6250000   0.3750000  -0.3750000), wk =   0.0039062
        k(   70) = (  -0.7500000   0.5000000  -0.5000000), wk =   0.0039062
        k(   71) = (  -0.8750000   0.6250000  -0.6250000), wk =   0.0039062
        k(   72) = (  -1.0000000   0.7500000  -0.7500000), wk =   0.0039062
        k(   73) = (   0.0000000   0.0000000   0.2500000), wk =   0.0039062
        k(   74) = (  -0.1250000   0.1250000   0.1250000), wk =   0.0039062
        k(   75) = (  -0.2500000   0.2500000   0.0000000), wk =   0.0039062
        k(   76) = (  -0.3750000   0.3750000  -0.1250000), wk =   0.0039062
        k(   77) = (  -0.5000000   0.5000000  -0.2500000), wk =   0.0039062
        k(   78) = (  -0.6250000   0.6250000  -0.3750000), wk =   0.0039062
        k(   79) = (  -0.7500000   0.7500000  -0.5000000), wk =   0.0039062
        k(   80) = (  -0.8750000   0.8750000  -0.6250000), wk =   0.0039062
        k(   81) = (   0.1250000   0.1250000   0.3750000), wk =   0.0039062
        k(   82) = (   0.0000000   0.2500000   0.2500000), wk =   0.0039062
        k(   83) = (  -0.1250000   0.3750000   0.1250000), wk =   0.0039062
        k(   84) = (  -0.2500000   0.5000000   0.0000000), wk =   0.0039062
        k(   85) = (  -0.3750000   0.6250000  -0.1250000), wk =   0.0039062
        k(   86) = (  -0.5000000   0.7500000  -0.2500000), wk =   0.0039062
        k(   87) = (  -0.6250000   0.8750000  -0.3750000), wk =   0.0039062
        k(   88) = (  -0.7500000   1.0000000  -0.5000000), wk =   0.0039062
        k(   89) = (   0.2500000   0.2500000   0.5000000), wk =   0.0039062
        k(   90) = (   0.1250000   0.3750000   0.3750000), wk =   0.0039062
        k(   91) = (   0.0000000   0.5000000   0.2500000), wk =   0.0039062
        k(   92) = (  -0.1250000   0.6250000   0.1250000), wk =   0.0039062
        k(   93) = (  -0.2500000   0.7500000   0.0000000), wk =   0.0039062
        k(   94) = (  -0.3750000   0.8750000  -0.1250000), wk =   0.0039062
        k(   95) = (  -0.5000000   1.0000000  -0.2500000), wk =   0.0039062
        k(   96) = (  -0.6250000   1.1250000  -0.3750000), wk =   0.0039062
        k(   97) = (   0.3750000   0.3750000   0.6250000), wk =   0.0039062
        k(   98) = (   0.2500000   0.5000000   0.5000000), wk =   0.0039062
        k(   99) = (   0.1250000   0.6250000   0.3750000), wk =   0.0039062
        k(  100) = (   0.0000000   0.7500000   0.2500000), wk =   0.0039062
        k(  101) = (  -0.1250000   0.8750000   0.1250000), wk =   0.0039062
        k(  102) = (  -0.2500000   1.0000000   0.0000000), wk =   0.0039062
        k(  103) = (  -0.3750000   1.1250000  -0.1250000), wk =   0.0039062
        k(  104) = (  -0.5000000   1.2500000  -0.2500000), wk =   0.0039062
        k(  105) = (   0.5000000   0.5000000   0.7500000), wk =   0.0039062
        k(  106) = (   0.3750000   0.6250000   0.6250000), wk =   0.0039062
        k(  107) = (   0.2500000   0.7500000   0.5000000), wk =   0.0039062
        k(  108) = (   0.1250000   0.8750000   0.3750000), wk =   0.0039062
        k(  109) = (   0.0000000   1.0000000   0.2500000), wk =   0.0039062
        k(  110) = (  -0.1250000   1.1250000   0.1250000), wk =   0.0039062
        k(  111) = (  -0.2500000   1.2500000   0.0000000), wk =   0.0039062
        k(  112) = (  -0.3750000   1.3750000  -0.1250000), wk =   0.0039062
        k(  113) = (   0.6250000   0.6250000   0.8750000), wk =   0.0039062
        k(  114) = (   0.5000000   0.7500000   0.7500000), wk =   0.0039062
        k(  115) = (   0.3750000   0.8750000   0.6250000), wk =   0.0039062
        k(  116) = (   0.2500000   1.0000000   0.5000000), wk =   0.0039062
        k(  117) = (   0.1250000   1.1250000   0.3750000), wk =   0.0039062
        k(  118) = (   0.0000000   1.2500000   0.2500000), wk =   0.0039062
        k(  119) = (  -0.1250000   1.3750000   0.1250000), wk =   0.0039062
        k(  120) = (  -0.2500000   1.5000000   0.0000000), wk =   0.0039062
        k(  121) = (   0.7500000   0.7500000   1.0000000), wk =   0.0039062
        k(  122) = (   0.6250000   0.8750000   0.8750000), wk =   0.0039062
        k(  123) = (   0.5000000   1.0000000   0.7500000), wk =   0.0039062
        k(  124) = (   0.3750000   1.1250000   0.6250000), wk =   0.0039062
        k(  125) = (   0.2500000   1.2500000   0.5000000), wk =   0.0039062
        k(  126) = (   0.1250000   1.3750000   0.3750000), wk =   0.0039062
        k(  127) = (   0.0000000   1.5000000   0.2500000), wk =   0.0039062
        k(  128) = (  -0.1250000   1.6250000   0.1250000), wk =   0.0039062
        k(  129) = (  -0.2500000  -0.2500000   0.2500000), wk =   0.0039062
        k(  130) = (  -0.3750000  -0.1250000   0.1250000), wk =   0.0039062
        k(  131) = (  -0.5000000   0.0000000   0.0000000), wk =   0.0039062
        k(  132) = (  -0.6250000   0.1250000  -0.1250000), wk =   0.0039062
        k(  133) = (  -0.7500000   0.2500000  -0.2500000), wk =   0.0039062
        k(  134) = (  -0.8750000   0.3750000  -0.3750000), wk =   0.0039062
        k(  135) = (  -1.0000000   0.5000000  -0.5000000), wk =   0.0039062
        k(  136) = (  -1.1250000   0.6250000  -0.6250000), wk =   0.0039062
        k(  137) = (  -0.1250000  -0.1250000   0.3750000), wk =   0.0039062
        k(  138) = (  -0.2500000   0.0000000   0.2500000), wk =   0.0039062
        k(  139) = (  -0.3750000   0.1250000   0.1250000), wk =   0.0039062
        k(  140) = (  -0.5000000   0.2500000   0.0000000), wk =   0.0039062
        k(  141) = (  -0.6250000   0.3750000  -0.1250000), wk =   0.0039062
        k(  142) = (  -0.7500000   0.5000000  -0.2500000), wk =   0.0039062
        k(  143) = (  -0.8750000   0.6250000  -0.3750000), wk =   0.0039062
        k(  144) = (  -1.0000000   0.7500000  -0.5000000), wk =   0.0039062
        k(  145) = (   0.0000000   0.0000000   0.5000000), wk =   0.0039062
        k(  146) = (  -0.1250000   0.1250000   0.3750000), wk =   0.0039062
        k(  147) = (  -0.2500000   0.2500000   0.2500000), wk =   0.0039062
        k(  148) = (  -0.3750000   0.3750000   0.1250000), wk =   0.0039062
        k(  149) = (  -0.5000000   0.5000000   0.0000000), wk =   0.0039062
        k(  150) = (  -0.6250000   0.6250000  -0.1250000), wk =   0.0039062
        k(  151) = (  -0.7500000   0.7500000  -0.2500000), wk =   0.0039062
        k(  152) = (  -0.8750000   0.8750000  -0.3750000), wk =   0.0039062
        k(  153) = (   0.1250000   0.1250000   0.6250000), wk =   0.0039062
        k(  154) = (   0.0000000   0.2500000   0.5000000), wk =   0.0039062
        k(  155) = (  -0.1250000   0.3750000   0.3750000), wk =   0.0039062
        k(  156) = (  -0.2500000   0.5000000   0.2500000), wk =   0.0039062
        k(  157) = (  -0.3750000   0.6250000   0.1250000), wk =   0.0039062
        k(  158) = (  -0.5000000   0.7500000   0.0000000), wk =   0.0039062
        k(  159) = (  -0.6250000   0.8750000  -0.1250000), wk =   0.0039062
        k(  160) = (  -0.7500000   1.0000000  -0.2500000), wk =   0.0039062
        k(  161) = (   0.2500000   0.2500000   0.7500000), wk =   0.0039062
        k(  162) = (   0.1250000   0.3750000   0.6250000), wk =   0.0039062
        k(  163) = (   0.0000000   0.5000000   0.5000000), wk =   0.0039062
        k(  164) = (  -0.1250000   0.6250000   0.3750000), wk =   0.0039062
        k(  165) = (  -0.2500000   0.7500000   0.2500000), wk =   0.0039062
        k(  166) = (  -0.3750000   0.8750000   0.1250000), wk =   0.0039062
        k(  167) = (  -0.5000000   1.0000000   0.0000000), wk =   0.0039062
        k(  168) = (  -0.6250000   1.1250000  -0.1250000), wk =   0.0039062
        k(  169) = (   0.3750000   0.3750000   0.8750000), wk =   0.0039062
        k(  170) = (   0.2500000   0.5000000   0.7500000), wk =   0.0039062
        k(  171) = (   0.1250000   0.6250000   0.6250000), wk =   0.0039062
        k(  172) = (   0.0000000   0.7500000   0.5000000), wk =   0.0039062
        k(  173) = (  -0.1250000   0.8750000   0.3750000), wk =   0.0039062
        k(  174) = (  -0.2500000   1.0000000   0.2500000), wk =   0.0039062
        k(  175) = (  -0.3750000   1.1250000   0.1250000), wk =   0.0039062
        k(  176) = (  -0.5000000   1.2500000   0.0000000), wk =   0.0039062
        k(  177) = (   0.5000000   0.5000000   1.0000000), wk =   0.0039062
        k(  178) = (   0.3750000   0.6250000   0.8750000), wk =   0.0039062
        k(  179) = (   0.2500000   0.7500000   0.7500000), wk =   0.0039062
        k(  180) = (   0.1250000   0.8750000   0.6250000), wk =   0.0039062
        k(  181) = (   0.0000000   1.0000000   0.5000000), wk =   0.0039062
        k(  182) = (  -0.1250000   1.1250000   0.3750000), wk =   0.0039062
        k(  183) = (  -0.2500000   1.2500000   0.2500000), wk =   0.0039062
        k(  184) = (  -0.3750000   1.3750000   0.1250000), wk =   0.0039062
        k(  185) = (   0.6250000   0.6250000   1.1250000), wk =   0.0039062
        k(  186) = (   0.5000000   0.7500000   1.0000000), wk =   0.0039062
        k(  187) = (   0.3750000   0.8750000   0.8750000), wk =   0.0039062
        k(  188) = (   0.2500000   1.0000000   0.7500000), wk =   0.0039062
        k(  189) = (   0.1250000   1.1250000   0.6250000), wk =   0.0039062
        k(  190) = (   0.0000000   1.2500000   0.5000000), wk =   0.0039062
        k(  191) = (  -0.1250000   1.3750000   0.3750000), wk =   0.0039062
        k(  192) = (  -0.2500000   1.5000000   0.2500000), wk =   0.0039062
        k(  193) = (  -0.3750000  -0.3750000   0.3750000), wk =   0.0039062
        k(  194) = (  -0.5000000  -0.2500000   0.2500000), wk =   0.0039062
        k(  195) = (  -0.6250000  -0.1250000   0.1250000), wk =   0.0039062
        k(  196) = (  -0.7500000   0.0000000   0.0000000), wk =   0.0039062
        k(  197) = (  -0.8750000   0.1250000  -0.1250000), wk =   0.0039062
        k(  198) = (  -1.0000000   0.2500000  -0.2500000), wk =   0.0039062
        k(  199) = (  -1.1250000   0.3750000  -0.3750000), wk =   0.0039062
        k(  200) = (  -1.2500000   0.5000000  -0.5000000), wk =   0.0039062
        k(  201) = (  -0.2500000  -0.2500000   0.5000000), wk =   0.0039062
        k(  202) = (  -0.3750000  -0.1250000   0.3750000), wk =   0.0039062
        k(  203) = (  -0.5000000   0.0000000   0.2500000), wk =   0.0039062
        k(  204) = (  -0.6250000   0.1250000   0.1250000), wk =   0.0039062
        k(  205) = (  -0.7500000   0.2500000   0.0000000), wk =   0.0039062
        k(  206) = (  -0.8750000   0.3750000  -0.1250000), wk =   0.0039062
        k(  207) = (  -1.0000000   0.5000000  -0.2500000), wk =   0.0039062
        k(  208) = (  -1.1250000   0.6250000  -0.3750000), wk =   0.0039062
        k(  209) = (  -0.1250000  -0.1250000   0.6250000), wk =   0.0039062
        k(  210) = (  -0.2500000   0.0000000   0.5000000), wk =   0.0039062
        k(  211) = (  -0.3750000   0.1250000   0.3750000), wk =   0.0039062
        k(  212) = (  -0.5000000   0.2500000   0.2500000), wk =   0.0039062
        k(  213) = (  -0.6250000   0.3750000   0.1250000), wk =   0.0039062
        k(  214) = (  -0.7500000   0.5000000   0.0000000), wk =   0.0039062
        k(  215) = (  -0.8750000   0.6250000  -0.1250000), wk =   0.0039062
        k(  216) = (  -1.0000000   0.7500000  -0.2500000), wk =   0.0039062
        k(  217) = (   0.0000000   0.0000000   0.7500000), wk =   0.0039062
        k(  218) = (  -0.1250000   0.1250000   0.6250000), wk =   0.0039062
        k(  219) = (  -0.2500000   0.2500000   0.5000000), wk =   0.0039062
        k(  220) = (  -0.3750000   0.3750000   0.3750000), wk =   0.0039062
        k(  221) = (  -0.5000000   0.5000000   0.2500000), wk =   0.0039062
        k(  222) = (  -0.6250000   0.6250000   0.1250000), wk =   0.0039062
        k(  223) = (  -0.7500000   0.7500000   0.0000000), wk =   0.0039062
        k(  224) = (  -0.8750000   0.8750000  -0.1250000), wk =   0.0039062
        k(  225) = (   0.1250000   0.1250000   0.8750000), wk =   0.0039062
        k(  226) = (   0.0000000   0.2500000   0.7500000), wk =   0.0039062
        k(  227) = (  -0.1250000   0.3750000   0.6250000), wk =   0.0039062
        k(  228) = (  -0.2500000   0.5000000   0.5000000), wk =   0.0039062
        k(  229) = (  -0.3750000   0.6250000   0.3750000), wk =   0.0039062
        k(  230) = (  -0.5000000   0.7500000   0.2500000), wk =   0.0039062
        k(  231) = (  -0.6250000   0.8750000   0.1250000), wk =   0.0039062
        k(  232) = (  -0.7500000   1.0000000   0.0000000), wk =   0.0039062
        k(  233) = (   0.2500000   0.2500000   1.0000000), wk =   0.0039062
        k(  234) = (   0.1250000   0.3750000   0.8750000), wk =   0.0039062
        k(  235) = (   0.0000000   0.5000000   0.7500000), wk =   0.0039062
        k(  236) = (  -0.1250000   0.6250000   0.6250000), wk =   0.0039062
        k(  237) = (  -0.2500000   0.7500000   0.5000000), wk =   0.0039062
        k(  238) = (  -0.3750000   0.8750000   0.3750000), wk =   0.0039062
        k(  239) = (  -0.5000000   1.0000000   0.2500000), wk =   0.0039062
        k(  240) = (  -0.6250000   1.1250000   0.1250000), wk =   0.0039062
        k(  241) = (   0.3750000   0.3750000   1.1250000), wk =   0.0039062
        k(  242) = (   0.2500000   0.5000000   1.0000000), wk =   0.0039062
        k(  243) = (   0.1250000   0.6250000   0.8750000), wk =   0.0039062
        k(  244) = (   0.0000000   0.7500000   0.7500000), wk =   0.0039062
        k(  245) = (  -0.1250000   0.8750000   0.6250000), wk =   0.0039062
        k(  246) = (  -0.2500000   1.0000000   0.5000000), wk =   0.0039062
        k(  247) = (  -0.3750000   1.1250000   0.3750000), wk =   0.0039062
        k(  248) = (  -0.5000000   1.2500000   0.2500000), wk =   0.0039062
        k(  249) = (   0.5000000   0.5000000   1.2500000), wk =   0.0039062
        k(  250) = (   0.3750000   0.6250000   1.1250000), wk =   0.0039062
        k(  251) = (   0.2500000   0.7500000   1.0000000), wk =   0.0039062
        k(  252) = (   0.1250000   0.8750000   0.8750000), wk =   0.0039062
        k(  253) = (   0.0000000   1.0000000   0.7500000), wk =   0.0039062
        k(  254) = (  -0.1250000   1.1250000   0.6250000), wk =   0.0039062
        k(  255) = (  -0.2500000   1.2500000   0.5000000), wk =   0.0039062
        k(  256) = (  -0.3750000   1.3750000   0.3750000), wk =   0.0039062
        k(  257) = (  -0.5000000  -0.5000000   0.5000000), wk =   0.0039062
        k(  258) = (  -0.6250000  -0.3750000   0.3750000), wk =   0.0039062
        k(  259) = (  -0.7500000  -0.2500000   0.2500000), wk =   0.0039062
        k(  260) = (  -0.8750000  -0.1250000   0.1250000), wk =   0.0039062
        k(  261) = (  -1.0000000   0.0000000   0.0000000), wk =   0.0039062
        k(  262) = (  -1.1250000   0.1250000  -0.1250000), wk =   0.0039062
        k(  263) = (  -1.2500000   0.2500000  -0.2500000), wk =   0.0039062
        k(  264) = (  -1.3750000   0.3750000  -0.3750000), wk =   0.0039062
        k(  265) = (  -0.3750000  -0.3750000   0.6250000), wk =   0.0039062
        k(  266) = (  -0.5000000  -0.2500000   0.5000000), wk =   0.0039062
        k(  267) = (  -0.6250000  -0.1250000   0.3750000), wk =   0.0039062
        k(  268) = (  -0.7500000   0.0000000   0.2500000), wk =   0.0039062
        k(  269) = (  -0.8750000   0.1250000   0.1250000), wk =   0.0039062
        k(  270) = (  -1.0000000   0.2500000   0.0000000), wk =   0.0039062
        k(  271) = (  -1.1250000   0.3750000  -0.1250000), wk =   0.0039062
        k(  272) = (  -1.2500000   0.5000000  -0.2500000), wk =   0.0039062
        k(  273) = (  -0.2500000  -0.2500000   0.7500000), wk =   0.0039062
        k(  274) = (  -0.3750000  -0.1250000   0.6250000), wk =   0.0039062
        k(  275) = (  -0.5000000   0.0000000   0.5000000), wk =   0.0039062
        k(  276) = (  -0.6250000   0.1250000   0.3750000), wk =   0.0039062
        k(  277) = (  -0.7500000   0.2500000   0.2500000), wk =   0.0039062
        k(  278) = (  -0.8750000   0.3750000   0.1250000), wk =   0.0039062
        k(  279) = (  -1.0000000   0.5000000   0.0000000), wk =   0.0039062
        k(  280) = (  -1.1250000   0.6250000  -0.1250000), wk =   0.0039062
        k(  281) = (  -0.1250000  -0.1250000   0.8750000), wk =   0.0039062
        k(  282) = (  -0.2500000   0.0000000   0.7500000), wk =   0.0039062
        k(  283) = (  -0.3750000   0.1250000   0.6250000), wk =   0.0039062
        k(  284) = (  -0.5000000   0.2500000   0.5000000), wk =   0.0039062
        k(  285) = (  -0.6250000   0.3750000   0.3750000), wk =   0.0039062
        k(  286) = (  -0.7500000   0.5000000   0.2500000), wk =   0.0039062
        k(  287) = (  -0.8750000   0.6250000   0.1250000), wk =   0.0039062
        k(  288) = (  -1.0000000   0.7500000   0.0000000), wk =   0.0039062
        k(  289) = (   0.0000000   0.0000000   1.0000000), wk =   0.0039062
        k(  290) = (  -0.1250000   0.1250000   0.8750000), wk =   0.0039062
        k(  291) = (  -0.2500000   0.2500000   0.7500000), wk =   0.0039062
        k(  292) = (  -0.3750000   0.3750000   0.6250000), wk =   0.0039062
        k(  293) = (  -0.5000000   0.5000000   0.5000000), wk =   0.0039062
        k(  294) = (  -0.6250000   0.6250000   0.3750000), wk =   0.0039062
        k(  295) = (  -0.7500000   0.7500000   0.2500000), wk =   0.0039062
        k(  296) = (  -0.8750000   0.8750000   0.1250000), wk =   0.0039062
        k(  297) = (   0.1250000   0.1250000   1.1250000), wk =   0.0039062
        k(  298) = (   0.0000000   0.2500000   1.0000000), wk =   0.0039062
        k(  299) = (  -0.1250000   0.3750000   0.8750000), wk =   0.0039062
        k(  300) = (  -0.2500000   0.5000000   0.7500000), wk =   0.0039062
        k(  301) = (  -0.3750000   0.6250000   0.6250000), wk =   0.0039062
        k(  302) = (  -0.5000000   0.7500000   0.5000000), wk =   0.0039062
        k(  303) = (  -0.6250000   0.8750000   0.3750000), wk =   0.0039062
        k(  304) = (  -0.7500000   1.0000000   0.2500000), wk =   0.0039062
        k(  305) = (   0.2500000   0.2500000   1.2500000), wk =   0.0039062
        k(  306) = (   0.1250000   0.3750000   1.1250000), wk =   0.0039062
        k(  307) = (   0.0000000   0.5000000   1.0000000), wk =   0.0039062
        k(  308) = (  -0.1250000   0.6250000   0.8750000), wk =   0.0039062
        k(  309) = (  -0.2500000   0.7500000   0.7500000), wk =   0.0039062
        k(  310) = (  -0.3750000   0.8750000   0.6250000), wk =   0.0039062
        k(  311) = (  -0.5000000   1.0000000   0.5000000), wk =   0.0039062
        k(  312) = (  -0.6250000   1.1250000   0.3750000), wk =   0.0039062
        k(  313) = (   0.3750000   0.3750000   1.3750000), wk =   0.0039062
        k(  314) = (   0.2500000   0.5000000   1.2500000), wk =   0.0039062
        k(  315) = (   0.1250000   0.6250000   1.1250000), wk =   0.0039062
        k(  316) = (   0.0000000   0.7500000   1.0000000), wk =   0.0039062
        k(  317) = (  -0.1250000   0.8750000   0.8750000), wk =   0.0039062
        k(  318) = (  -0.2500000   1.0000000   0.7500000), wk =   0.0039062
        k(  319) = (  -0.3750000   1.1250000   0.6250000), wk =   0.0039062
        k(  320) = (  -0.5000000   1.2500000   0.5000000), wk =   0.0039062
        k(  321) = (  -0.6250000  -0.6250000   0.6250000), wk =   0.0039062
        k(  322) = (  -0.7500000  -0.5000000   0.5000000), wk =   0.0039062
        k(  323) = (  -0.8750000  -0.3750000   0.3750000), wk =   0.0039062
        k(  324) = (  -1.0000000  -0.2500000   0.2500000), wk =   0.0039062
        k(  325) = (  -1.1250000  -0.1250000   0.1250000), wk =   0.0039062
        k(  326) = (  -1.2500000   0.0000000   0.0000000), wk =   0.0039062
        k(  327) = (  -1.3750000   0.1250000  -0.1250000), wk =   0.0039062
        k(  328) = (  -1.5000000   0.2500000  -0.2500000), wk =   0.0039062
        k(  329) = (  -0.5000000  -0.5000000   0.7500000), wk =   0.0039062
        k(  330) = (  -0.6250000  -0.3750000   0.6250000), wk =   0.0039062
        k(  331) = (  -0.7500000  -0.2500000   0.5000000), wk =   0.0039062
        k(  332) = (  -0.8750000  -0.1250000   0.3750000), wk =   0.0039062
        k(  333) = (  -1.0000000   0.0000000   0.2500000), wk =   0.0039062
        k(  334) = (  -1.1250000   0.1250000   0.1250000), wk =   0.0039062
        k(  335) = (  -1.2500000   0.2500000   0.0000000), wk =   0.0039062
        k(  336) = (  -1.3750000   0.3750000  -0.1250000), wk =   0.0039062
        k(  337) = (  -0.3750000  -0.3750000   0.8750000), wk =   0.0039062
        k(  338) = (  -0.5000000  -0.2500000   0.7500000), wk =   0.0039062
        k(  339) = (  -0.6250000  -0.1250000   0.6250000), wk =   0.0039062
        k(  340) = (  -0.7500000   0.0000000   0.5000000), wk =   0.0039062
        k(  341) = (  -0.8750000   0.1250000   0.3750000), wk =   0.0039062
        k(  342) = (  -1.0000000   0.2500000   0.2500000), wk =   0.0039062
        k(  343) = (  -1.1250000   0.3750000   0.1250000), wk =   0.0039062
        k(  344) = (  -1.2500000   0.5000000   0.0000000), wk =   0.0039062
        k(  345) = (  -0.2500000  -0.2500000   1.0000000), wk =   0.0039062
        k(  346) = (  -0.3750000  -0.1250000   0.8750000), wk =   0.0039062
        k(  347) = (  -0.5000000   0.0000000   0.7500000), wk =   0.0039062
        k(  348) = (  -0.6250000   0.1250000   0.6250000), wk =   0.0039062
        k(  349) = (  -0.7500000   0.2500000   0.5000000), wk =   0.0039062
        k(  350) = (  -0.8750000   0.3750000   0.3750000), wk =   0.0039062
        k(  351) = (  -1.0000000   0.5000000   0.2500000), wk =   0.0039062
        k(  352) = (  -1.1250000   0.6250000   0.1250000), wk =   0.0039062
        k(  353) = (  -0.1250000  -0.1250000   1.1250000), wk =   0.0039062
        k(  354) = (  -0.2500000   0.0000000   1.0000000), wk =   0.0039062
        k(  355) = (  -0.3750000   0.1250000   0.8750000), wk =   0.0039062
        k(  356) = (  -0.5000000   0.2500000   0.7500000), wk =   0.0039062
        k(  357) = (  -0.6250000   0.3750000   0.6250000), wk =   0.0039062
        k(  358) = (  -0.7500000   0.5000000   0.5000000), wk =   0.0039062
        k(  359) = (  -0.8750000   0.6250000   0.3750000), wk =   0.0039062
        k(  360) = (  -1.0000000   0.7500000   0.2500000), wk =   0.0039062
        k(  361) = (   0.0000000   0.0000000   1.2500000), wk =   0.0039062
        k(  362) = (  -0.1250000   0.1250000   1.1250000), wk =   0.0039062
        k(  363) = (  -0.2500000   0.2500000   1.0000000), wk =   0.0039062
        k(  364) = (  -0.3750000   0.3750000   0.8750000), wk =   0.0039062
        k(  365) = (  -0.5000000   0.5000000   0.7500000), wk =   0.0039062
        k(  366) = (  -0.6250000   0.6250000   0.6250000), wk =   0.0039062
        k(  367) = (  -0.7500000   0.7500000   0.5000000), wk =   0.0039062
        k(  368) = (  -0.8750000   0.8750000   0.3750000), wk =   0.0039062
        k(  369) = (   0.1250000   0.1250000   1.3750000), wk =   0.0039062
        k(  370) = (   0.0000000   0.2500000   1.2500000), wk =   0.0039062
        k(  371) = (  -0.1250000   0.3750000   1.1250000), wk =   0.0039062
        k(  372) = (  -0.2500000   0.5000000   1.0000000), wk =   0.0039062
        k(  373) = (  -0.3750000   0.6250000   0.8750000), wk =   0.0039062
        k(  374) = (  -0.5000000   0.7500000   0.7500000), wk =   0.0039062
        k(  375) = (  -0.6250000   0.8750000   0.6250000), wk =   0.0039062
        k(  376) = (  -0.7500000   1.0000000   0.5000000), wk =   0.0039062
        k(  377) = (   0.2500000   0.2500000   1.5000000), wk =   0.0039062
        k(  378) = (   0.1250000   0.3750000   1.3750000), wk =   0.0039062
        k(  379) = (   0.0000000   0.5000000   1.2500000), wk =   0.0039062
        k(  380) = (  -0.1250000   0.6250000   1.1250000), wk =   0.0039062
        k(  381) = (  -0.2500000   0.7500000   1.0000000), wk =   0.0039062
        k(  382) = (  -0.3750000   0.8750000   0.8750000), wk =   0.0039062
        k(  383) = (  -0.5000000   1.0000000   0.7500000), wk =   0.0039062
        k(  384) = (  -0.6250000   1.1250000   0.6250000), wk =   0.0039062
        k(  385) = (  -0.7500000  -0.7500000   0.7500000), wk =   0.0039062
        k(  386) = (  -0.8750000  -0.6250000   0.6250000), wk =   0.0039062
        k(  387) = (  -1.0000000  -0.5000000   0.5000000), wk =   0.0039062
        k(  388) = (  -1.1250000  -0.3750000   0.3750000), wk =   0.0039062
        k(  389) = (  -1.2500000  -0.2500000   0.2500000), wk =   0.0039062
        k(  390) = (  -1.3750000  -0.1250000   0.1250000), wk =   0.0039062
        k(  391) = (  -1.5000000   0.0000000   0.0000000), wk =   0.0039062
        k(  392) = (  -1.6250000   0.1250000  -0.1250000), wk =   0.0039062
        k(  393) = (  -0.6250000  -0.6250000   0.8750000), wk =   0.0039062
        k(  394) = (  -0.7500000  -0.5000000   0.7500000), wk =   0.0039062
        k(  395) = (  -0.8750000  -0.3750000   0.6250000), wk =   0.0039062
        k(  396) = (  -1.0000000  -0.2500000   0.5000000), wk =   0.0039062
        k(  397) = (  -1.1250000  -0.1250000   0.3750000), wk =   0.0039062
        k(  398) = (  -1.2500000   0.0000000   0.2500000), wk =   0.0039062
        k(  399) = (  -1.3750000   0.1250000   0.1250000), wk =   0.0039062
        k(  400) = (  -1.5000000   0.2500000   0.0000000), wk =   0.0039062
        k(  401) = (  -0.5000000  -0.5000000   1.0000000), wk =   0.0039062
        k(  402) = (  -0.6250000  -0.3750000   0.8750000), wk =   0.0039062
        k(  403) = (  -0.7500000  -0.2500000   0.7500000), wk =   0.0039062
        k(  404) = (  -0.8750000  -0.1250000   0.6250000), wk =   0.0039062
        k(  405) = (  -1.0000000   0.0000000   0.5000000), wk =   0.0039062
        k(  406) = (  -1.1250000   0.1250000   0.3750000), wk =   0.0039062
        k(  407) = (  -1.2500000   0.2500000   0.2500000), wk =   0.0039062
        k(  408) = (  -1.3750000   0.3750000   0.1250000), wk =   0.0039062
        k(  409) = (  -0.3750000  -0.3750000   1.1250000), wk =   0.0039062
        k(  410) = (  -0.5000000  -0.2500000   1.0000000), wk =   0.0039062
        k(  411) = (  -0.6250000  -0.1250000   0.8750000), wk =   0.0039062
        k(  412) = (  -0.7500000   0.0000000   0.7500000), wk =   0.0039062
        k(  413) = (  -0.8750000   0.1250000   0.6250000), wk =   0.0039062
        k(  414) = (  -1.0000000   0.2500000   0.5000000), wk =   0.0039062
        k(  415) = (  -1.1250000   0.3750000   0.3750000), wk =   0.0039062
        k(  416) = (  -1.2500000   0.5000000   0.2500000), wk =   0.0039062
        k(  417) = (  -0.2500000  -0.2500000   1.2500000), wk =   0.0039062
        k(  418) = (  -0.3750000  -0.1250000   1.1250000), wk =   0.0039062
        k(  419) = (  -0.5000000   0.0000000   1.0000000), wk =   0.0039062
        k(  420) = (  -0.6250000   0.1250000   0.8750000), wk =   0.0039062
        k(  421) = (  -0.7500000   0.2500000   0.7500000), wk =   0.0039062
        k(  422) = (  -0.8750000   0.3750000   0.6250000), wk =   0.0039062
        k(  423) = (  -1.0000000   0.5000000   0.5000000), wk =   0.0039062
        k(  424) = (  -1.1250000   0.6250000   0.3750000), wk =   0.0039062
        k(  425) = (  -0.1250000  -0.1250000   1.3750000), wk =   0.0039062
        k(  426) = (  -0.2500000   0.0000000   1.2500000), wk =   0.0039062
        k(  427) = (  -0.3750000   0.1250000   1.1250000), wk =   0.0039062
        k(  428) = (  -0.5000000   0.2500000   1.0000000), wk =   0.0039062
        k(  429) = (  -0.6250000   0.3750000   0.8750000), wk =   0.0039062
        k(  430) = (  -0.7500000   0.5000000   0.7500000), wk =   0.0039062
        k(  431) = (  -0.8750000   0.6250000   0.6250000), wk =   0.0039062
        k(  432) = (  -1.0000000   0.7500000   0.5000000), wk =   0.0039062
        k(  433) = (   0.0000000   0.0000000   1.5000000), wk =   0.0039062
        k(  434) = (  -0.1250000   0.1250000   1.3750000), wk =   0.0039062
        k(  435) = (  -0.2500000   0.2500000   1.2500000), wk =   0.0039062
        k(  436) = (  -0.3750000   0.3750000   1.1250000), wk =   0.0039062
        k(  437) = (  -0.5000000   0.5000000   1.0000000), wk =   0.0039062
        k(  438) = (  -0.6250000   0.6250000   0.8750000), wk =   0.0039062
        k(  439) = (  -0.7500000   0.7500000   0.7500000), wk =   0.0039062
        k(  440) = (  -0.8750000   0.8750000   0.6250000), wk =   0.0039062
        k(  441) = (   0.1250000   0.1250000   1.6250000), wk =   0.0039062
        k(  442) = (   0.0000000   0.2500000   1.5000000), wk =   0.0039062
        k(  443) = (  -0.1250000   0.3750000   1.3750000), wk =   0.0039062
        k(  444) = (  -0.2500000   0.5000000   1.2500000), wk =   0.0039062
        k(  445) = (  -0.3750000   0.6250000   1.1250000), wk =   0.0039062
        k(  446) = (  -0.5000000   0.7500000   1.0000000), wk =   0.0039062
        k(  447) = (  -0.6250000   0.8750000   0.8750000), wk =   0.0039062
        k(  448) = (  -0.7500000   1.0000000   0.7500000), wk =   0.0039062
        k(  449) = (  -0.8750000  -0.8750000   0.8750000), wk =   0.0039062
        k(  450) = (  -1.0000000  -0.7500000   0.7500000), wk =   0.0039062
        k(  451) = (  -1.1250000  -0.6250000   0.6250000), wk =   0.0039062
        k(  452) = (  -1.2500000  -0.5000000   0.5000000), wk =   0.0039062
        k(  453) = (  -1.3750000  -0.3750000   0.3750000), wk =   0.0039062
        k(  454) = (  -1.5000000  -0.2500000   0.2500000), wk =   0.0039062
        k(  455) = (  -1.6250000  -0.1250000   0.1250000), wk =   0.0039062
        k(  456) = (  -1.7500000   0.0000000   0.0000000), wk =   0.0039062
        k(  457) = (  -0.7500000  -0.7500000   1.0000000), wk =   0.0039062
        k(  458) = (  -0.8750000  -0.6250000   0.8750000), wk =   0.0039062
        k(  459) = (  -1.0000000  -0.5000000   0.7500000), wk =   0.0039062
        k(  460) = (  -1.1250000  -0.3750000   0.6250000), wk =   0.0039062
        k(  461) = (  -1.2500000  -0.2500000   0.5000000), wk =   0.0039062
        k(  462) = (  -1.3750000  -0.1250000   0.3750000), wk =   0.0039062
        k(  463) = (  -1.5000000   0.0000000   0.2500000), wk =   0.0039062
        k(  464) = (  -1.6250000   0.1250000   0.1250000), wk =   0.0039062
        k(  465) = (  -0.6250000  -0.6250000   1.1250000), wk =   0.0039062
        k(  466) = (  -0.7500000  -0.5000000   1.0000000), wk =   0.0039062
        k(  467) = (  -0.8750000  -0.3750000   0.8750000), wk =   0.0039062
        k(  468) = (  -1.0000000  -0.2500000   0.7500000), wk =   0.0039062
        k(  469) = (  -1.1250000  -0.1250000   0.6250000), wk =   0.0039062
        k(  470) = (  -1.2500000   0.0000000   0.5000000), wk =   0.0039062
        k(  471) = (  -1.3750000   0.1250000   0.3750000), wk =   0.0039062
        k(  472) = (  -1.5000000   0.2500000   0.2500000), wk =   0.0039062
        k(  473) = (  -0.5000000  -0.5000000   1.2500000), wk =   0.0039062
        k(  474) = (  -0.6250000  -0.3750000   1.1250000), wk =   0.0039062
        k(  475) = (  -0.7500000  -0.2500000   1.0000000), wk =   0.0039062
        k(  476) = (  -0.8750000  -0.1250000   0.8750000), wk =   0.0039062
        k(  477) = (  -1.0000000   0.0000000   0.7500000), wk =   0.0039062
        k(  478) = (  -1.1250000   0.1250000   0.6250000), wk =   0.0039062
        k(  479) = (  -1.2500000   0.2500000   0.5000000), wk =   0.0039062
        k(  480) = (  -1.3750000   0.3750000   0.3750000), wk =   0.0039062
        k(  481) = (  -0.3750000  -0.3750000   1.3750000), wk =   0.0039062
        k(  482) = (  -0.5000000  -0.2500000   1.2500000), wk =   0.0039062
        k(  483) = (  -0.6250000  -0.1250000   1.1250000), wk =   0.0039062
        k(  484) = (  -0.7500000   0.0000000   1.0000000), wk =   0.0039062
        k(  485) = (  -0.8750000   0.1250000   0.8750000), wk =   0.0039062
        k(  486) = (  -1.0000000   0.2500000   0.7500000), wk =   0.0039062
        k(  487) = (  -1.1250000   0.3750000   0.6250000), wk =   0.0039062
        k(  488) = (  -1.2500000   0.5000000   0.5000000), wk =   0.0039062
        k(  489) = (  -0.2500000  -0.2500000   1.5000000), wk =   0.0039062
        k(  490) = (  -0.3750000  -0.1250000   1.3750000), wk =   0.0039062
        k(  491) = (  -0.5000000   0.0000000   1.2500000), wk =   0.0039062
        k(  492) = (  -0.6250000   0.1250000   1.1250000), wk =   0.0039062
        k(  493) = (  -0.7500000   0.2500000   1.0000000), wk =   0.0039062
        k(  494) = (  -0.8750000   0.3750000   0.8750000), wk =   0.0039062
        k(  495) = (  -1.0000000   0.5000000   0.7500000), wk =   0.0039062
        k(  496) = (  -1.1250000   0.6250000   0.6250000), wk =   0.0039062
        k(  497) = (  -0.1250000  -0.1250000   1.6250000), wk =   0.0039062
        k(  498) = (  -0.2500000   0.0000000   1.5000000), wk =   0.0039062
        k(  499) = (  -0.3750000   0.1250000   1.3750000), wk =   0.0039062
        k(  500) = (  -0.5000000   0.2500000   1.2500000), wk =   0.0039062
        k(  501) = (  -0.6250000   0.3750000   1.1250000), wk =   0.0039062
        k(  502) = (  -0.7500000   0.5000000   1.0000000), wk =   0.0039062
        k(  503) = (  -0.8750000   0.6250000   0.8750000), wk =   0.0039062
        k(  504) = (  -1.0000000   0.7500000   0.7500000), wk =   0.0039062
        k(  505) = (   0.0000000   0.0000000   1.7500000), wk =   0.0039062
        k(  506) = (  -0.1250000   0.1250000   1.6250000), wk =   0.0039062
        k(  507) = (  -0.2500000   0.2500000   1.5000000), wk =   0.0039062
        k(  508) = (  -0.3750000   0.3750000   1.3750000), wk =   0.0039062
        k(  509) = (  -0.5000000   0.5000000   1.2500000), wk =   0.0039062
        k(  510) = (  -0.6250000   0.6250000   1.1250000), wk =   0.0039062
        k(  511) = (  -0.7500000   0.7500000   1.0000000), wk =   0.0039062
        k(  512) = (  -0.8750000   0.8750000   0.8750000), wk =   0.0039062

                       cryst. coord.
        k(    1) = (   0.0000000   0.0000000   0.0000000), wk =   0.0039062
        k(    2) = (   0.0000000   0.0000000   0.1250000), wk =   0.0039062
        k(    3) = (   0.0000000   0.0000000   0.2500000), wk =   0.0039062
        k(    4) = (   0.0000000   0.0000000   0.3750000), wk =   0.0039062
        k(    5) = (   0.0000000   0.0000000   0.5000000), wk =   0.0039062
        k(    6) = (   0.0000000   0.0000000   0.6250000), wk =   0.0039062
        k(    7) = (   0.0000000   0.0000000   0.7500000), wk =   0.0039062
        k(    8) = (   0.0000000   0.0000000   0.8750000), wk =   0.0039062
        k(    9) = (   0.0000000   0.1250000   0.0000000), wk =   0.0039062
        k(   10) = (   0.0000000   0.1250000   0.1250000), wk =   0.0039062
        k(   11) = (   0.0000000   0.1250000   0.2500000), wk =   0.0039062
        k(   12) = (   0.0000000   0.1250000   0.3750000), wk =   0.0039062
        k(   13) = (   0.0000000   0.1250000   0.5000000), wk =   0.0039062
        k(   14) = (   0.0000000   0.1250000   0.6250000), wk =   0.0039062
        k(   15) = (   0.0000000   0.1250000   0.7500000), wk =   0.0039062
        k(   16) = (   0.0000000   0.1250000   0.8750000), wk =   0.0039062
        k(   17) = (   0.0000000   0.2500000   0.0000000), wk =   0.0039062
        k(   18) = (   0.0000000   0.2500000   0.1250000), wk =   0.0039062
        k(   19) = (   0.0000000   0.2500000   0.2500000), wk =   0.0039062
        k(   20) = (   0.0000000   0.2500000   0.3750000), wk =   0.0039062
        k(   21) = (   0.0000000   0.2500000   0.5000000), wk =   0.0039062
        k(   22) = (   0.0000000   0.2500000   0.6250000), wk =   0.0039062
        k(   23) = (   0.0000000   0.2500000   0.7500000), wk =   0.0039062
        k(   24) = (   0.0000000   0.2500000   0.8750000), wk =   0.0039062
        k(   25) = (   0.0000000   0.3750000   0.0000000), wk =   0.0039062
        k(   26) = (   0.0000000   0.3750000   0.1250000), wk =   0.0039062
        k(   27) = (   0.0000000   0.3750000   0.2500000), wk =   0.0039062
        k(   28) = (   0.0000000   0.3750000   0.3750000), wk =   0.0039062
        k(   29) = (   0.0000000   0.3750000   0.5000000), wk =   0.0039062
        k(   30) = (   0.0000000   0.3750000   0.6250000), wk =   0.0039062
        k(   31) = (   0.0000000   0.3750000   0.7500000), wk =   0.0039062
        k(   32) = (   0.0000000   0.3750000   0.8750000), wk =   0.0039062
        k(   33) = (   0.0000000   0.5000000   0.0000000), wk =   0.0039062
        k(   34) = (   0.0000000   0.5000000   0.1250000), wk =   0.0039062
        k(   35) = (   0.0000000   0.5000000   0.2500000), wk =   0.0039062
        k(   36) = (   0.0000000   0.5000000   0.3750000), wk =   0.0039062
        k(   37) = (   0.0000000   0.5000000   0.5000000), wk =   0.0039062
        k(   38) = (   0.0000000   0.5000000   0.6250000), wk =   0.0039062
        k(   39) = (   0.0000000   0.5000000   0.7500000), wk =   0.0039062
        k(   40) = (   0.0000000   0.5000000   0.8750000), wk =   0.0039062
        k(   41) = (   0.0000000   0.6250000   0.0000000), wk =   0.0039062
        k(   42) = (   0.0000000   0.6250000   0.1250000), wk =   0.0039062
        k(   43) = (   0.0000000   0.6250000   0.2500000), wk =   0.0039062
        k(   44) = (   0.0000000   0.6250000   0.3750000), wk =   0.0039062
        k(   45) = (   0.0000000   0.6250000   0.5000000), wk =   0.0039062
        k(   46) = (   0.0000000   0.6250000   0.6250000), wk =   0.0039062
        k(   47) = (   0.0000000   0.6250000   0.7500000), wk =   0.0039062
        k(   48) = (   0.0000000   0.6250000   0.8750000), wk =   0.0039062
        k(   49) = (   0.0000000   0.7500000   0.0000000), wk =   0.0039062
        k(   50) = (   0.0000000   0.7500000   0.1250000), wk =   0.0039062
        k(   51) = (   0.0000000   0.7500000   0.2500000), wk =   0.0039062
        k(   52) = (   0.0000000   0.7500000   0.3750000), wk =   0.0039062
        k(   53) = (   0.0000000   0.7500000   0.5000000), wk =   0.0039062
        k(   54) = (   0.0000000   0.7500000   0.6250000), wk =   0.0039062
        k(   55) = (   0.0000000   0.7500000   0.7500000), wk =   0.0039062
        k(   56) = (   0.0000000   0.7500000   0.8750000), wk =   0.0039062
        k(   57) = (   0.0000000   0.8750000   0.0000000), wk =   0.0039062
        k(   58) = (   0.0000000   0.8750000   0.1250000), wk =   0.0039062
        k(   59) = (   0.0000000   0.8750000   0.2500000), wk =   0.0039062
        k(   60) = (   0.0000000   0.8750000   0.3750000), wk =   0.0039062
        k(   61) = (   0.0000000   0.8750000   0.5000000), wk =   0.0039062
        k(   62) = (   0.0000000   0.8750000   0.6250000), wk =   0.0039062
        k(   63) = (   0.0000000   0.8750000   0.7500000), wk =   0.0039062
        k(   64) = (   0.0000000   0.8750000   0.8750000), wk =   0.0039062
        k(   65) = (   0.1250000   0.0000000   0.0000000), wk =   0.0039062
        k(   66) = (   0.1250000   0.0000000   0.1250000), wk =   0.0039062
        k(   67) = (   0.1250000   0.0000000   0.2500000), wk =   0.0039062
        k(   68) = (   0.1250000   0.0000000   0.3750000), wk =   0.0039062
        k(   69) = (   0.1250000   0.0000000   0.5000000), wk =   0.0039062
        k(   70) = (   0.1250000   0.0000000   0.6250000), wk =   0.0039062
        k(   71) = (   0.1250000   0.0000000   0.7500000), wk =   0.0039062
        k(   72) = (   0.1250000   0.0000000   0.8750000), wk =   0.0039062
        k(   73) = (   0.1250000   0.1250000   0.0000000), wk =   0.0039062
        k(   74) = (   0.1250000   0.1250000   0.1250000), wk =   0.0039062
        k(   75) = (   0.1250000   0.1250000   0.2500000), wk =   0.0039062
        k(   76) = (   0.1250000   0.1250000   0.3750000), wk =   0.0039062
        k(   77) = (   0.1250000   0.1250000   0.5000000), wk =   0.0039062
        k(   78) = (   0.1250000   0.1250000   0.6250000), wk =   0.0039062
        k(   79) = (   0.1250000   0.1250000   0.7500000), wk =   0.0039062
        k(   80) = (   0.1250000   0.1250000   0.8750000), wk =   0.0039062
        k(   81) = (   0.1250000   0.2500000   0.0000000), wk =   0.0039062
        k(   82) = (   0.1250000   0.2500000   0.1250000), wk =   0.0039062
        k(   83) = (   0.1250000   0.2500000   0.2500000), wk =   0.0039062
        k(   84) = (   0.1250000   0.2500000   0.3750000), wk =   0.0039062
        k(   85) = (   0.1250000   0.2500000   0.5000000), wk =   0.0039062
        k(   86) = (   0.1250000   0.2500000   0.6250000), wk =   0.0039062
        k(   87) = (   0.1250000   0.2500000   0.7500000), wk =   0.0039062
        k(   88) = (   0.1250000   0.2500000   0.8750000), wk =   0.0039062
        k(   89) = (   0.1250000   0.3750000   0.0000000), wk =   0.0039062
        k(   90) = (   0.1250000   0.3750000   0.1250000), wk =   0.0039062
        k(   91) = (   0.1250000   0.3750000   0.2500000), wk =   0.0039062
        k(   92) = (   0.1250000   0.3750000   0.3750000), wk =   0.0039062
        k(   93) = (   0.1250000   0.3750000   0.5000000), wk =   0.0039062
        k(   94) = (   0.1250000   0.3750000   0.6250000), wk =   0.0039062
        k(   95) = (   0.1250000   0.3750000   0.7500000), wk =   0.0039062
        k(   96) = (   0.1250000   0.3750000   0.8750000), wk =   0.0039062
        k(   97) = (   0.1250000   0.5000000   0.0000000), wk =   0.0039062
        k(   98) = (   0.1250000   0.5000000   0.1250000), wk =   0.0039062
        k(   99) = (   0.1250000   0.5000000   0.2500000), wk =   0.0039062
        k(  100) = (   0.1250000   0.5000000   0.3750000), wk =   0.0039062
        k(  101) = (   0.1250000   0.5000000   0.5000000), wk =   0.0039062
        k(  102) = (   0.1250000   0.5000000   0.6250000), wk =   0.0039062
        k(  103) = (   0.1250000   0.5000000   0.7500000), wk =   0.0039062
        k(  104) = (   0.1250000   0.5000000   0.8750000), wk =   0.0039062
        k(  105) = (   0.1250000   0.6250000   0.0000000), wk =   0.0039062
        k(  106) = (   0.1250000   0.6250000   0.1250000), wk =   0.0039062
        k(  107) = (   0.1250000   0.6250000   0.2500000), wk =   0.0039062
        k(  108) = (   0.1250000   0.6250000   0.3750000), wk =   0.0039062
        k(  109) = (   0.1250000   0.6250000   0.5000000), wk =   0.0039062
        k(  110) = (   0.1250000   0.6250000   0.6250000), wk =   0.0039062
        k(  111) = (   0.1250000   0.6250000   0.7500000), wk =   0.0039062
        k(  112) = (   0.1250000   0.6250000   0.8750000), wk =   0.0039062
        k(  113) = (   0.1250000   0.7500000   0.0000000), wk =   0.0039062
        k(  114) = (   0.1250000   0.7500000   0.1250000), wk =   0.0039062
        k(  115) = (   0.1250000   0.7500000   0.2500000), wk =   0.0039062
        k(  116) = (   0.1250000   0.7500000   0.3750000), wk =   0.0039062
        k(  117) = (   0.1250000   0.7500000   0.5000000), wk =   0.0039062
        k(  118) = (   0.1250000   0.7500000   0.6250000), wk =   0.0039062
        k(  119) = (   0.1250000   0.7500000   0.7500000), wk =   0.0039062
        k(  120) = (   0.1250000   0.7500000   0.8750000), wk =   0.0039062
        k(  121) = (   0.1250000   0.8750000   0.0000000), wk =   0.0039062
        k(  122) = (   0.1250000   0.8750000   0.1250000), wk =   0.0039062
        k(  123) = (   0.1250000   0.8750000   0.2500000), wk =   0.0039062
        k(  124) = (   0.1250000   0.8750000   0.3750000), wk =   0.0039062
        k(  125) = (   0.1250000   0.8750000   0.5000000), wk =   0.0039062
        k(  126) = (   0.1250000   0.8750000   0.6250000), wk =   0.0039062
        k(  127) = (   0.1250000   0.8750000   0.7500000), wk =   0.0039062
        k(  128) = (   0.1250000   0.8750000   0.8750000), wk =   0.0039062
        k(  129) = (   0.2500000   0.0000000   0.0000000), wk =   0.0039062
        k(  130) = (   0.2500000   0.0000000   0.1250000), wk =   0.0039062
        k(  131) = (   0.2500000   0.0000000   0.2500000), wk =   0.0039062
        k(  132) = (   0.2500000   0.0000000   0.3750000), wk =   0.0039062
        k(  133) = (   0.2500000   0.0000000   0.5000000), wk =   0.0039062
        k(  134) = (   0.2500000   0.0000000   0.6250000), wk =   0.0039062
        k(  135) = (   0.2500000   0.0000000   0.7500000), wk =   0.0039062
        k(  136) = (   0.2500000   0.0000000   0.8750000), wk =   0.0039062
        k(  137) = (   0.2500000   0.1250000   0.0000000), wk =   0.0039062
        k(  138) = (   0.2500000   0.1250000   0.1250000), wk =   0.0039062
        k(  139) = (   0.2500000   0.1250000   0.2500000), wk =   0.0039062
        k(  140) = (   0.2500000   0.1250000   0.3750000), wk =   0.0039062
        k(  141) = (   0.2500000   0.1250000   0.5000000), wk =   0.0039062
        k(  142) = (   0.2500000   0.1250000   0.6250000), wk =   0.0039062
        k(  143) = (   0.2500000   0.1250000   0.7500000), wk =   0.0039062
        k(  144) = (   0.2500000   0.1250000   0.8750000), wk =   0.0039062
        k(  145) = (   0.2500000   0.2500000   0.0000000), wk =   0.0039062
        k(  146) = (   0.2500000   0.2500000   0.1250000), wk =   0.0039062
        k(  147) = (   0.2500000   0.2500000   0.2500000), wk =   0.0039062
        k(  148) = (   0.2500000   0.2500000   0.3750000), wk =   0.0039062
        k(  149) = (   0.2500000   0.2500000   0.5000000), wk =   0.0039062
        k(  150) = (   0.2500000   0.2500000   0.6250000), wk =   0.0039062
        k(  151) = (   0.2500000   0.2500000   0.7500000), wk =   0.0039062
        k(  152) = (   0.2500000   0.2500000   0.8750000), wk =   0.0039062
        k(  153) = (   0.2500000   0.3750000   0.0000000), wk =   0.0039062
        k(  154) = (   0.2500000   0.3750000   0.1250000), wk =   0.0039062
        k(  155) = (   0.2500000   0.3750000   0.2500000), wk =   0.0039062
        k(  156) = (   0.2500000   0.3750000   0.3750000), wk =   0.0039062
        k(  157) = (   0.2500000   0.3750000   0.5000000), wk =   0.0039062
        k(  158) = (   0.2500000   0.3750000   0.6250000), wk =   0.0039062
        k(  159) = (   0.2500000   0.3750000   0.7500000), wk =   0.0039062
        k(  160) = (   0.2500000   0.3750000   0.8750000), wk =   0.0039062
        k(  161) = (   0.2500000   0.5000000   0.0000000), wk =   0.0039062
        k(  162) = (   0.2500000   0.5000000   0.1250000), wk =   0.0039062
        k(  163) = (   0.2500000   0.5000000   0.2500000), wk =   0.0039062
        k(  164) = (   0.2500000   0.5000000   0.3750000), wk =   0.0039062
        k(  165) = (   0.2500000   0.5000000   0.5000000), wk =   0.0039062
        k(  166) = (   0.2500000   0.5000000   0.6250000), wk =   0.0039062
        k(  167) = (   0.2500000   0.5000000   0.7500000), wk =   0.0039062
        k(  168) = (   0.2500000   0.5000000   0.8750000), wk =   0.0039062
        k(  169) = (   0.2500000   0.6250000   0.0000000), wk =   0.0039062
        k(  170) = (   0.2500000   0.6250000   0.1250000), wk =   0.0039062
        k(  171) = (   0.2500000   0.6250000   0.2500000), wk =   0.0039062
        k(  172) = (   0.2500000   0.6250000   0.3750000), wk =   0.0039062
        k(  173) = (   0.2500000   0.6250000   0.5000000), wk =   0.0039062
        k(  174) = (   0.2500000   0.6250000   0.6250000), wk =   0.0039062
        k(  175) = (   0.2500000   0.6250000   0.7500000), wk =   0.0039062
        k(  176) = (   0.2500000   0.6250000   0.8750000), wk =   0.0039062
        k(  177) = (   0.2500000   0.7500000   0.0000000), wk =   0.0039062
        k(  178) = (   0.2500000   0.7500000   0.1250000), wk =   0.0039062
        k(  179) = (   0.2500000   0.7500000   0.2500000), wk =   0.0039062
        k(  180) = (   0.2500000   0.7500000   0.3750000), wk =   0.0039062
        k(  181) = (   0.2500000   0.7500000   0.5000000), wk =   0.0039062
        k(  182) = (   0.2500000   0.7500000   0.6250000), wk =   0.0039062
        k(  183) = (   0.2500000   0.7500000   0.7500000), wk =   0.0039062
        k(  184) = (   0.2500000   0.7500000   0.8750000), wk =   0.0039062
        k(  185) = (   0.2500000   0.8750000   0.0000000), wk =   0.0039062
        k(  186) = (   0.2500000   0.8750000   0.1250000), wk =   0.0039062
        k(  187) = (   0.2500000   0.8750000   0.2500000), wk =   0.0039062
        k(  188) = (   0.2500000   0.8750000   0.3750000), wk =   0.0039062
        k(  189) = (   0.2500000   0.8750000   0.5000000), wk =   0.0039062
        k(  190) = (   0.2500000   0.8750000   0.6250000), wk =   0.0039062
        k(  191) = (   0.2500000   0.8750000   0.7500000), wk =   0.0039062
        k(  192) = (   0.2500000   0.8750000   0.8750000), wk =   0.0039062
        k(  193) = (   0.3750000   0.0000000   0.0000000), wk =   0.0039062
        k(  194) = (   0.3750000   0.0000000   0.1250000), wk =   0.0039062
        k(  195) = (   0.3750000   0.0000000   0.2500000), wk =   0.0039062
        k(  196) = (   0.3750000   0.0000000   0.3750000), wk =   0.0039062
        k(  197) = (   0.3750000   0.0000000   0.5000000), wk =   0.0039062
        k(  198) = (   0.3750000   0.0000000   0.6250000), wk =   0.0039062
        k(  199) = (   0.3750000   0.0000000   0.7500000), wk =   0.0039062
        k(  200) = (   0.3750000   0.0000000   0.8750000), wk =   0.0039062
[...]
     0.0000   0.0000

          k =-1.1250-0.6250 0.6250 (  1376 PWs)   bands (ev):

   -19.4734  -1.9631  -0.8784  -0.3956  10.0493  15.9651  18.6850  18.9234
    26.1146  26.2112

     occupation numbers 
     1.0000   1.0000   1.0000   1.0000   0.0000   0.0000   0.0000   0.0000
     0.0000   0.0000

          k =-1.2500-0.5000 0.5000 (  1388 PWs)   bands (ev):

   -19.3209  -2.5832  -0.9605  -0.5298  10.4535  15.2688  18.0535  18.1056
    27.8134  28.3956

     occupation numbers 
     1.0000   1.0000   1.0000   1.0000   0.0000   0.0000   0.0000   0.0000
     0.0000   0.0000

          k =-1.3750-0.3750 0.3750 (  1389 PWs)   bands (ev):

   -19.2933  -2.7023  -0.8819  -0.6397  10.5097  15.2801  17.8670  18.0473
    26.4462  29.4350

     occupation numbers 
     1.0000   1.0000   1.0000   1.0000   0.0000   0.0000   0.0000   0.0000
     0.0000   0.0000

          k =-1.5000-0.2500 0.2500 (  1382 PWs)   bands (ev):

   -19.4091  -2.2543  -0.7041  -0.6628  10.3211  15.7758  18.3054  18.6520
    24.1852  29.4430

     occupation numbers 
     1.0000   1.0000   1.0000   1.0000   0.0000   0.0000   0.0000   0.0000
     0.0000   0.0000

          k =-1.6250-0.1250 0.1250 (  1380 PWs)   bands (ev):

   -19.5925  -1.4339  -0.5863  -0.5397   9.6030  17.4811  19.4153  19.6536
    22.1344  28.1751

     occupation numbers 
     1.0000   1.0000   1.0000   1.0000   0.0000   0.0000   0.0000   0.0000
     0.0000   0.0000

          k =-1.7500 0.0000 0.0000 (  1395 PWs)   bands (ev):

   -19.7342  -0.7096  -0.4509  -0.4509   8.7773  20.5343  20.6396  20.6396
    20.8745  26.7283

     occupation numbers 
     1.0000   1.0000   1.0000   1.0000   0.0000   0.0000   0.0000   0.0000
     0.0000   0.0000

          k =-0.7500-0.7500 1.0000 (  1376 PWs)   bands (ev):

   -19.6536  -1.1903  -0.6268  -0.3152   9.2034  17.8279  19.6121  20.3401
    24.4100  24.7900

     occupation numbers 
     1.0000   1.0000   1.0000   1.0000   0.0000   0.0000   0.0000   0.0000
     0.0000   0.0000

          k =-0.8750-0.6250 0.8750 (  1380 PWs)   bands (ev):

   -19.5925  -1.4339  -0.5863  -0.5397   9.6030  17.4811  19.4153  19.6536
    22.1344  28.1751

     occupation numbers 
     1.0000   1.0000   1.0000   1.0000   0.0000   0.0000   0.0000   0.0000
     0.0000   0.0000

          k =-1.0000-0.5000 0.7500 (  1371 PWs)   bands (ev):

   -19.4404  -1.9197  -1.0417  -0.5845  10.5299  16.0869  18.4547  19.0096
    22.6018  29.8423

     occupation numbers 
     1.0000   1.0000   1.0000   1.0000   0.0000   0.0000   0.0000   0.0000
     0.0000   0.0000

          k =-1.1250-0.3750 0.6250 (  1380 PWs)   bands (ev):

   -19.2819  -2.3980  -1.3903  -0.7039  11.3397  14.9795  17.9278  18.3201
    24.5345  28.9085

     occupation numbers 
     1.0000   1.0000   1.0000   1.0000   0.0000   0.0000   0.0000   0.0000
     0.0000   0.0000

          k =-1.2500-0.2500 0.5000 (  1382 PWs)   bands (ev):

   -19.2141  -2.6010  -1.5036  -0.7706  11.5774  14.7332  17.8768  17.9223
    26.3782  27.3097

     occupation numbers 
     1.0000   1.0000   1.0000   1.0000   0.0000   0.0000   0.0000   0.0000
     0.0000   0.0000

          k =-1.3750-0.1250 0.3750 (  1380 PWs)   bands (ev):

   -19.2819  -2.3980  -1.3903  -0.7039  11.3397  14.9795  17.9278  18.3201
    24.5345  28.9085

     occupation numbers 
     1.0000   1.0000   1.0000   1.0000   0.0000   0.0000   0.0000   0.0000
     0.0000   0.0000

          k =-1.5000 0.0000 0.2500 (  1371 PWs)   bands (ev):

   -19.4404  -1.9197  -1.0417  -0.5845  10.5299  16.0869  18.4547  19.0096
    22.6018  29.8423

     occupation numbers 
     1.0000   1.0000   1.0000   1.0000   0.0000   0.0000   0.0000   0.0000
     0.0000   0.0000

          k =-1.6250 0.1250 0.1250 (  1380 PWs)   bands (ev):

   -19.5925  -1.4339  -0.5863  -0.5397   9.6030  17.4811  19.4153  19.6536
    22.1344  28.1751

     occupation numbers 
     1.0000   1.0000   1.0000   1.0000   0.0000   0.0000   0.0000   0.0000
     0.0000   0.0000

          k =-0.6250-0.6250 1.1250 (  1376 PWs)   bands (ev):

   -19.4734  -1.9631  -0.8784  -0.3956  10.0493  15.9651  18.6850  18.9234
    26.1146  26.2112

     occupation numbers 
     1.0000   1.0000   1.0000   1.0000   0.0000   0.0000   0.0000   0.0000
     0.0000   0.0000

          k =-0.7500-0.5000 1.0000 (  1371 PWs)   bands (ev):

   -19.4404  -1.9197  -1.0417  -0.5845  10.5299  16.0869  18.4547  19.0096
    22.6018  29.8423

     occupation numbers 
     1.0000   1.0000   1.0000   1.0000   0.0000   0.0000   0.0000   0.0000
     0.0000   0.0000

          k =-0.8750-0.3750 0.8750 (  1385 PWs)   bands (ev):

   -19.3274  -2.3231  -1.0504  -0.9322  11.4388  15.9899  17.7505  19.0225
    20.7420  32.4018

     occupation numbers 
     1.0000   1.0000   1.0000   1.0000   0.0000   0.0000   0.0000   0.0000
     0.0000   0.0000

          k =-1.0000-0.2500 0.7500 (  1377 PWs)   bands (ev):

   -19.1970  -2.6554  -1.4430  -1.0086  12.4896  15.1041  17.1752  18.5882
    21.6376  31.0396

     occupation numbers 
     1.0000   1.0000   1.0000   1.0000   0.0000   0.0000   0.0000   0.0000
     0.0000   0.0000

          k =-1.1250-0.1250 0.6250 (  1386 PWs)   bands (ev):

   -19.1279  -2.6185  -1.8935  -1.0152  13.1502  14.3380  17.0414  18.1333
    23.7112  29.1672

     occupation numbers 
     1.0000   1.0000   1.0000   1.0000   0.0000   0.0000   0.0000   0.0000
     0.0000   0.0000

          k =-1.2500 0.0000 0.5000 (  1375 PWs)   bands (ev):

   -19.1640  -2.2815  -2.1277  -0.8768  12.6286  14.2414  17.5894  17.9510
    26.1938  26.6118

     occupation numbers 
     1.0000   1.0000   1.0000   1.0000   0.0000   0.0000   0.0000   0.0000
     0.0000   0.0000

          k =-1.3750 0.1250 0.3750 (  1380 PWs)   bands (ev):

   -19.2819  -2.3980  -1.3903  -0.7039  11.3397  14.9795  17.9278  18.3201
    24.5345  28.9085

     occupation numbers 
     1.0000   1.0000   1.0000   1.0000   0.0000   0.0000   0.0000   0.0000
     0.0000   0.0000

          k =-1.5000 0.2500 0.2500 (  1382 PWs)   bands (ev):

   -19.4091  -2.2543  -0.7041  -0.6628  10.3211  15.7758  18.3054  18.6520
    24.1852  29.4430

     occupation numbers 
     1.0000   1.0000   1.0000   1.0000   0.0000   0.0000   0.0000   0.0000
     0.0000   0.0000

          k =-0.5000-0.5000 1.2500 (  1388 PWs)   bands (ev):

   -19.3209  -2.5832  -0.9605  -0.5298  10.4535  15.2688  18.0535  18.1056
    27.8134  28.3956

     occupation numbers 
     1.0000   1.0000   1.0000   1.0000   0.0000   0.0000   0.0000   0.0000
     0.0000   0.0000

          k =-0.6250-0.3750 1.1250 (  1380 PWs)   bands (ev):

   -19.2819  -2.3980  -1.3903  -0.7039  11.3397  14.9795  17.9278  18.3201
    24.5345  28.9085

     occupation numbers 
     1.0000   1.0000   1.0000   1.0000   0.0000   0.0000   0.0000   0.0000
     0.0000   0.0000

          k =-0.7500-0.2500 1.0000 (  1377 PWs)   bands (ev):

   -19.1970  -2.6554  -1.4430  -1.0086  12.4896  15.1041  17.1752  18.5882
    21.6376  31.0396

     occupation numbers 
     1.0000   1.0000   1.0000   1.0000   0.0000   0.0000   0.0000   0.0000
     0.0000   0.0000

          k =-0.8750-0.1250 0.8750 (  1370 PWs)   bands (ev):

   -19.1150  -3.0163  -1.4052  -1.1723  13.3804  15.0776  16.6748  18.9159
    20.1804  31.8585

     occupation numbers 
     1.0000   1.0000   1.0000   1.0000   0.0000   0.0000   0.0000   0.0000
     0.0000   0.0000

          k =-1.0000 0.0000 0.7500 (  1382 PWs)   bands (ev):

   -19.0860  -2.9950  -1.6052  -1.1821  13.8515  14.7775  16.2632  18.4868
    21.3871  31.9831

     occupation numbers 
     1.0000   1.0000   1.0000   1.0000   0.0000   0.0000   0.0000   0.0000
     0.0000   0.0000

          k =-1.1250 0.1250 0.6250 (  1386 PWs)   bands (ev):

   -19.1279  -2.6185  -1.8935  -1.0152  13.1502  14.3380  17.0414  18.1333
    23.7112  29.1672

     occupation numbers 
     1.0000   1.0000   1.0000   1.0000   0.0000   0.0000   0.0000   0.0000
     0.0000   0.0000

          k =-1.2500 0.2500 0.5000 (  1382 PWs)   bands (ev):

   -19.2141  -2.6010  -1.5036  -0.7706  11.5774  14.7332  17.8768  17.9223
    26.3782  27.3097

     occupation numbers 
     1.0000   1.0000   1.0000   1.0000   0.0000   0.0000   0.0000   0.0000
     0.0000   0.0000

          k =-1.3750 0.3750 0.3750 (  1389 PWs)   bands (ev):

   -19.2933  -2.7023  -0.8819  -0.6397  10.5097  15.2801  17.8670  18.0473
    26.4462  29.4350

     occupation numbers 
     1.0000   1.0000   1.0000   1.0000   0.0000   0.0000   0.0000   0.0000
     0.0000   0.0000

          k =-0.3750-0.3750 1.3750 (  1389 PWs)   bands (ev):

   -19.2933  -2.7023  -0.8819  -0.6397  10.5097  15.2801  17.8670  18.0473
    26.4462  29.4350

     occupation numbers 
     1.0000   1.0000   1.0000   1.0000   0.0000   0.0000   0.0000   0.0000
     0.0000   0.0000

          k =-0.5000-0.2500 1.2500 (  1382 PWs)   bands (ev):

   -19.2141  -2.6010  -1.5036  -0.7706  11.5774  14.7332  17.8768  17.9223
    26.3782  27.3097

     occupation numbers 
     1.0000   1.0000   1.0000   1.0000   0.0000   0.0000   0.0000   0.0000
     0.0000   0.0000

          k =-0.6250-0.1250 1.1250 (  1386 PWs)   bands (ev):

   -19.1279  -2.6185  -1.8935  -1.0152  13.1502  14.3380  17.0414  18.1333
    23.7112  29.1672

     occupation numbers 
     1.0000   1.0000   1.0000   1.0000   0.0000   0.0000   0.0000   0.0000
     0.0000   0.0000

          k =-0.7500 0.0000 1.0000 (  1382 PWs)   bands (ev):

   -19.0860  -2.9950  -1.6052  -1.1821  13.8515  14.7775  16.2632  18.4868
    21.3871  31.9831

     occupation numbers 
     1.0000   1.0000   1.0000   1.0000   0.0000   0.0000   0.0000   0.0000
     0.0000   0.0000

          k =-0.8750 0.1250 0.8750 (  1370 PWs)   bands (ev):

   -19.1150  -3.0163  -1.4052  -1.1723  13.3804  15.0776  16.6748  18.9159
    20.1804  31.8585

     occupation numbers 
     1.0000   1.0000   1.0000   1.0000   0.0000   0.0000   0.0000   0.0000
     0.0000   0.0000

          k =-1.0000 0.2500 0.7500 (  1377 PWs)   bands (ev):

   -19.1970  -2.6554  -1.4430  -1.0086  12.4896  15.1041  17.1752  18.5882
    21.6376  31.0396

     occupation numbers 
     1.0000   1.0000   1.0000   1.0000   0.0000   0.0000   0.0000   0.0000
     0.0000   0.0000

          k =-1.1250 0.3750 0.6250 (  1380 PWs)   bands (ev):

   -19.2819  -2.3980  -1.3903  -0.7039  11.3397  14.9795  17.9278  18.3201
    24.5345  28.9085

     occupation numbers 
     1.0000   1.0000   1.0000   1.0000   0.0000   0.0000   0.0000   0.0000
     0.0000   0.0000

          k =-1.2500 0.5000 0.5000 (  1388 PWs)   bands (ev):

   -19.3209  -2.5832  -0.9605  -0.5298  10.4535  15.2688  18.0535  18.1056
    27.8134  28.3956

     occupation numbers 
     1.0000   1.0000   1.0000   1.0000   0.0000   0.0000   0.0000   0.0000
     0.0000   0.0000

          k =-0.2500-0.2500 1.5000 (  1382 PWs)   bands (ev):

   -19.4091  -2.2543  -0.7041  -0.6628  10.3211  15.7758  18.3054  18.6520
    24.1852  29.4430

     occupation numbers 
     1.0000   1.0000   1.0000   1.0000   0.0000   0.0000   0.0000   0.0000
     0.0000   0.0000

          k =-0.3750-0.1250 1.3750 (  1380 PWs)   bands (ev):

   -19.2819  -2.3980  -1.3903  -0.7039  11.3397  14.9795  17.9278  18.3201
    24.5345  28.9085

     occupation numbers 
     1.0000   1.0000   1.0000   1.0000   0.0000   0.0000   0.0000   0.0000
     0.0000   0.0000

          k =-0.5000 0.0000 1.2500 (  1375 PWs)   bands (ev):

   -19.1640  -2.2815  -2.1277  -0.8768  12.6286  14.2414  17.5894  17.9510
    26.1938  26.6118

     occupation numbers 
     1.0000   1.0000   1.0000   1.0000   0.0000   0.0000   0.0000   0.0000
     0.0000   0.0000

          k =-0.6250 0.1250 1.1250 (  1386 PWs)   bands (ev):

   -19.1279  -2.6185  -1.8935  -1.0152  13.1502  14.3380  17.0414  18.1333
    23.7112  29.1672

     occupation numbers 
     1.0000   1.0000   1.0000   1.0000   0.0000   0.0000   0.0000   0.0000
     0.0000   0.0000

          k =-0.7500 0.2500 1.0000 (  1377 PWs)   bands (ev):

   -19.1970  -2.6554  -1.4430  -1.0086  12.4896  15.1041  17.1752  18.5882
    21.6376  31.0396

     occupation numbers 
     1.0000   1.0000   1.0000   1.0000   0.0000   0.0000   0.0000   0.0000
     0.0000   0.0000

          k =-0.8750 0.3750 0.8750 (  1385 PWs)   bands (ev):

   -19.3274  -2.3231  -1.0504  -0.9322  11.4388  15.9899  17.7505  19.0225
    20.7420  32.4018

     occupation numbers 
     1.0000   1.0000   1.0000   1.0000   0.0000   0.0000   0.0000   0.0000
     0.0000   0.0000

          k =-1.0000 0.5000 0.7500 (  1371 PWs)   bands (ev):

   -19.4404  -1.9197  -1.0417  -0.5845  10.5299  16.0869  18.4547  19.0096
    22.6018  29.8423

     occupation numbers 
     1.0000   1.0000   1.0000   1.0000   0.0000   0.0000   0.0000   0.0000
     0.0000   0.0000

          k =-1.1250 0.6250 0.6250 (  1376 PWs)   bands (ev):

   -19.4734  -1.9631  -0.8784  -0.3956  10.0493  15.9651  18.6850  18.9234
    26.1146  26.2112

     occupation numbers 
     1.0000   1.0000   1.0000   1.0000   0.0000   0.0000   0.0000   0.0000
     0.0000   0.0000

          k =-0.1250-0.1250 1.6250 (  1380 PWs)   bands (ev):

   -19.5925  -1.4339  -0.5863  -0.5397   9.6030  17.4811  19.4153  19.6536
    22.1344  28.1751

     occupation numbers 
     1.0000   1.0000   1.0000   1.0000   0.0000   0.0000   0.0000   0.0000
     0.0000   0.0000

          k =-0.2500 0.0000 1.5000 (  1371 PWs)   bands (ev):

   -19.4404  -1.9197  -1.0417  -0.5845  10.5299  16.0869  18.4547  19.0096
    22.6018  29.8423

     occupation numbers 
     1.0000   1.0000   1.0000   1.0000   0.0000   0.0000   0.0000   0.0000
     0.0000   0.0000

          k =-0.3750 0.1250 1.3750 (  1380 PWs)   bands (ev):

   -19.2819  -2.3980  -1.3903  -0.7039  11.3397  14.9795  17.9278  18.3201
    24.5345  28.9085

     occupation numbers 
     1.0000   1.0000   1.0000   1.0000   0.0000   0.0000   0.0000   0.0000
     0.0000   0.0000

          k =-0.5000 0.2500 1.2500 (  1382 PWs)   bands (ev):

   -19.2141  -2.6010  -1.5036  -0.7706  11.5774  14.7332  17.8768  17.9223
    26.3782  27.3097

     occupation numbers 
     1.0000   1.0000   1.0000   1.0000   0.0000   0.0000   0.0000   0.0000
     0.0000   0.0000

          k =-0.6250 0.3750 1.1250 (  1380 PWs)   bands (ev):

   -19.2819  -2.3980  -1.3903  -0.7039  11.3397  14.9795  17.9278  18.3201
    24.5345  28.9085

     occupation numbers 
     1.0000   1.0000   1.0000   1.0000   0.0000   0.0000   0.0000   0.0000
     0.0000   0.0000

          k =-0.7500 0.5000 1.0000 (  1371 PWs)   bands (ev):

   -19.4404  -1.9197  -1.0417  -0.5845  10.5299  16.0869  18.4547  19.0096
    22.6018  29.8423

     occupation numbers 
     1.0000   1.0000   1.0000   1.0000   0.0000   0.0000   0.0000   0.0000
     0.0000   0.0000

          k =-0.8750 0.6250 0.8750 (  1380 PWs)   bands (ev):

   -19.5925  -1.4339  -0.5863  -0.5397   9.6030  17.4811  19.4153  19.6536
    22.1344  28.1751

     occupation numbers 
     1.0000   1.0000   1.0000   1.0000   0.0000   0.0000   0.0000   0.0000
     0.0000   0.0000

          k =-1.0000 0.7500 0.7500 (  1376 PWs)   bands (ev):

   -19.6536  -1.1903  -0.6268  -0.3152   9.2034  17.8279  19.6121  20.3401
    24.4100  24.7900

     occupation numbers 
     1.0000   1.0000   1.0000   1.0000   0.0000   0.0000   0.0000   0.0000
     0.0000   0.0000

          k = 0.0000 0.0000 1.7500 (  1395 PWs)   bands (ev):

   -19.7342  -0.7096  -0.4509  -0.4509   8.7773  20.5343  20.6396  20.6396
    20.8745  26.7283

     occupation numbers 
     1.0000   1.0000   1.0000   1.0000   0.0000   0.0000   0.0000   0.0000
     0.0000   0.0000

          k =-0.1250 0.1250 1.6250 (  1380 PWs)   bands (ev):

   -19.5925  -1.4339  -0.5863  -0.5397   9.6030  17.4811  19.4153  19.6536
    22.1344  28.1751

     occupation numbers 
     1.0000   1.0000   1.0000   1.0000   0.0000   0.0000   0.0000   0.0000
     0.0000   0.0000

          k =-0.2500 0.2500 1.5000 (  1382 PWs)   bands (ev):

   -19.4091  -2.2543  -0.7041  -0.6628  10.3211  15.7758  18.3054  18.6520
    24.1852  29.4430

     occupation numbers 
     1.0000   1.0000   1.0000   1.0000   0.0000   0.0000   0.0000   0.0000
     0.0000   0.0000

          k =-0.3750 0.3750 1.3750 (  1389 PWs)   bands (ev):

   -19.2933  -2.7023  -0.8819  -0.6397  10.5097  15.2801  17.8670  18.0473
    26.4462  29.4350

     occupation numbers 
     1.0000   1.0000   1.0000   1.0000   0.0000   0.0000   0.0000   0.0000
     0.0000   0.0000

          k =-0.5000 0.5000 1.2500 (  1388 PWs)   bands (ev):

   -19.3209  -2.5832  -0.9605  -0.5298  10.4535  15.2688  18.0535  18.1056
    27.8134  28.3956

     occupation numbers 
     1.0000   1.0000   1.0000   1.0000   0.0000   0.0000   0.0000   0.0000
     0.0000   0.0000

          k =-0.6250 0.6250 1.1250 (  1376 PWs)   bands (ev):

   -19.4734  -1.9631  -0.8784  -0.3956  10.0493  15.9651  18.6850  18.9234
    26.1146  26.2112

     occupation numbers 
     1.0000   1.0000   1.0000   1.0000   0.0000   0.0000   0.0000   0.0000
     0.0000   0.0000

          k =-0.7500 0.7500 1.0000 (  1376 PWs)   bands (ev):

   -19.6536  -1.1903  -0.6268  -0.3152   9.2034  17.8279  19.6121  20.3401
    24.4100  24.7900

     occupation numbers 
     1.0000   1.0000   1.0000   1.0000   0.0000   0.0000   0.0000   0.0000
     0.0000   0.0000

          k =-0.8750 0.8750 0.8750 (  1387 PWs)   bands (ev):

   -19.7587  -0.7379  -0.3371  -0.3371   8.5816  19.5194  21.1875  21.1875
    24.3741  24.5711

     occupation numbers 
     1.0000   1.0000   1.0000   1.0000   0.0000   0.0000   0.0000   0.0000
     0.0000   0.0000

     highest occupied, lowest unoccupied level (ev):    -0.3047    8.1451

     Writing all to output data dir ./LiF.save/

     init_run     :      0.19s CPU      0.19s WALL (       1 calls)
     electrons    :     12.86s CPU     13.54s WALL (       1 calls)

     Called by init_run:
     wfcinit      :      0.00s CPU      0.00s WALL (       1 calls)
     wfcinit:atom :      0.09s CPU      0.10s WALL (     512 calls)
     wfcinit:wfcr :      1.68s CPU      1.76s WALL (     512 calls)
     potinit      :      0.00s CPU      0.00s WALL (       1 calls)
     hinit0       :      0.16s CPU      0.16s WALL (       1 calls)

     Called by electrons:
     c_bands      :     12.86s CPU     13.53s WALL (       1 calls)
     v_of_rho     :      0.00s CPU      0.00s WALL (       1 calls)
     v_h          :      0.00s CPU      0.00s WALL (       1 calls)
     v_xc         :      0.00s CPU      0.00s WALL (       1 calls)

     Called by c_bands:
     init_us_2    :      0.04s CPU      0.05s WALL (     512 calls)
     init_us_2:cp :      0.04s CPU      0.05s WALL (     512 calls)
     cegterg      :     10.49s CPU     10.97s WALL (     971 calls)

     Called by sum_band:

     Called by *egterg:
     cdiaghg      :      2.14s CPU      2.23s WALL (   15059 calls)
     cegterg:over :      0.64s CPU      0.67s WALL (   14547 calls)
     cegterg:upda :      0.26s CPU      0.27s WALL (   14547 calls)
     cegterg:last :      0.36s CPU      0.38s WALL (    8063 calls)
     h_psi        :      8.31s CPU      8.70s WALL (   16030 calls)
     g_psi        :      0.08s CPU      0.08s WALL (   14547 calls)

     Called by h_psi:
     h_psi:calbec :      0.41s CPU      0.43s WALL (   16030 calls)
     vloc_psi     :      7.59s CPU      7.94s WALL (   16030 calls)
     add_vuspsi   :      0.24s CPU      0.25s WALL (   16030 calls)

     General routines
     calbec       :      0.40s CPU      0.42s WALL (   16030 calls)
     fft          :      0.13s CPU      0.14s WALL (       4 calls)
     fftw         :      6.56s CPU      6.87s WALL (  195434 calls)
     davcio       :      0.02s CPU      0.11s WALL (    1024 calls)

     Parallel routines

     PWSCF        :     13.50s CPU     15.02s WALL


   This run was terminated on:  10:18:22   1Apr2024            

=------------------------------------------------------------------------------=
   JOB DONE.
=------------------------------------------------------------------------------=
