<UPF version="2.0.1">
  <PP_INFO>
    Generated using FHI98PP, converted with fhi2upf.x v.5.0.2
    Origin: Abinit web site
    Date: 08-Sep-2012 (PG)
    Pseudopotential type: SL
    Element:  B
    Functional: PBE

    Suggested minimum cutoff for wavefunctions:   0. Ry
    Suggested minimum cutoff for charge density:   0. Ry
    The Pseudo was generated with a Scalar-Relativistic Calculation
    L component and cutoff radius for Local Potential:  2   0.0000

    Valence configuration: 
    nl pn  l   occ       Rcut    Rcut US       E pseu
    2s  2  0  2.00      0.000      0.000     0.000000
    2p  2  1  1.00      0.000      0.000     0.000000
    3d  3  2  0.00      0.000      0.000     0.000000
    4f  4  3  0.00      0.000      0.000     0.000000

    Generation configuration: not available.
    Comment:
    boron, fhi98PP : Trouiller-Martins-type, GGA Perdew/Burke/Ernzerhof (1996), l= 2
  </PP_INFO>
  <!--                               -->
  <!-- END OF HUMAN READABLE SECTION -->
  <!--                               -->
  <PP_HEADER generated="Generated using FHI98PP, converted with fhi2upf.x v.5.0.2"
             author="unknown"
             date="unknown"
             comment="boron, fhi98PP : Trouiller-Martins-type, GGA Perdew/Burke/Ernzerhof (1996), l= 2"
             element=" B"
             pseudo_type="SL"
             relativistic="scalar"
             is_ultrasoft="F"
             is_paw="F"
             is_coulomb="F"
             has_so="F"
             has_wfc="F"
             has_gipaw="F"
             paw_as_gipaw="F"
             core_correction="T"
             functional="PBE"
             z_valence="3.000000000000000E+000"
             total_psenergy="0.000000000000000E+000"
             wfc_cutoff="0.000000000000000E+000"
             rho_cutoff="0.000000000000000E+000"
             l_max="3"
             l_max_rho="0"
             l_local="2"
             mesh_size="453"
             number_of_wfc="4"
             number_of_proj="3"/>
  <PP_MESH dx="2.439988682353512E-002" mesh="453" xmin="-5.075173815233827E+000" rmax="7.702554472944399E+001"
zmesh="5.000000000000000E+000">
    <PP_R type="real" size="453" columns="4">
 1.250000000000000E-003  1.280875000000000E-003  1.312512612500000E-003  1.344931674028700E-003 
 1.378151486377300E-003  1.412191828090800E-003  1.447072966244600E-003  1.482815668510900E-003 
 1.519441215523100E-003  1.556971413546500E-003  1.595428607461100E-003  1.634835694065400E-003 
 1.675216135708800E-003  1.716593974260800E-003  1.758993845425100E-003  1.802440993407100E-003 
 1.846961285944200E-003  1.892581229707000E-003  1.939327986080800E-003  1.987229387337000E-003 
 2.036313953204200E-003  2.086610907848400E-003  2.138150197272200E-003  2.190962507144800E-003 
 2.245079281071300E-003  2.300532739313800E-003  2.357355897974800E-003  2.415582588654800E-003 
 2.475247478594600E-003  2.536386091315900E-003  2.599034827771400E-003  2.663230988017300E-003 
 2.729012793421300E-003  2.796419409418800E-003  2.865490968831500E-003  2.936268595761600E-003 
 3.008794430076900E-003  3.083111652499800E-003  3.159264510316600E-003  3.237298343721400E-003 
 3.317259612811300E-003  3.399195925247800E-003  3.483156064601400E-003  3.569190019397000E-003 
 3.657349012876100E-003  3.747685533494200E-003  3.840253366171500E-003  3.935107624315900E-003 
 4.032304782636500E-003  4.131902710767600E-003  4.233960707723600E-003  4.338539537204400E-003 
 4.445701463773300E-003  4.555510289928500E-003  4.668031394089800E-003  4.783331769523800E-003 
 4.901480064231000E-003  5.022546621817500E-003  5.146603523376400E-003  5.273724630403800E-003 
 5.403985628774800E-003  5.537464073805500E-003  5.674239436428500E-003  5.814393150508300E-003 
 5.958008661325900E-003  6.105171475260600E-003  6.255969210699500E-003  6.410491650203800E-003 
 6.568830793963900E-003  6.731080914574800E-003  6.897338613164800E-003  7.067702876909900E-003 
 7.242275137969600E-003  7.421159333877500E-003  7.604461969424200E-003  7.792292180069000E-003 
 7.984761796916699E-003  8.181985413300600E-003  8.384080453009099E-003  8.591167240198400E-003 
 8.803369071031301E-003  9.020812287085799E-003  9.243626350576800E-003  9.471943921436000E-003 
 9.705900936295499E-003  9.945636689421999E-003  1.019129391565100E-002  1.044301887536700E-002 
 1.070096144158900E-002  1.096527518919600E-002  1.123611748636900E-002  1.151364958828300E-002 
 1.179803673311300E-002  1.208944824042100E-002  1.238805761195900E-002  1.269404263497500E-002 
 1.300758548805900E-002  1.332887284961400E-002  1.365809600899900E-002  1.399545098042200E-002 
 1.434113861963800E-002  1.469536474354300E-002  1.505834025270800E-002  1.543028125695000E-002 
 1.581140920399700E-002  1.620195101133600E-002  1.660213920131600E-002  1.701221203958800E-002 
 1.743241367696600E-002  1.786299429478700E-002  1.830421025386800E-002  1.875632424713900E-002 
 1.921960545604300E-002  1.969432971080800E-002  2.018077965466500E-002  2.067924491213500E-002 
 2.119002226146400E-002  2.171341581132300E-002  2.224973718186200E-002  2.279930569025400E-002 
 2.336244854080400E-002  2.393950101976100E-002  2.453080669495000E-002  2.513671762031500E-002 
 2.575759454553700E-002  2.639380713081100E-002  2.704573416694200E-002  2.771376380086600E-002 
 2.839829376674700E-002  2.909973162278600E-002  2.981849499386900E-002  3.055501182021700E-002 
 3.130972061217700E-002  3.208307071129700E-002  3.287552255786600E-002  3.368754796504600E-002 
 3.451963039978200E-002  3.537226527065700E-002  3.624596022284200E-002  3.714123544034600E-002 
 3.805862395572300E-002  3.899867196742900E-002  3.996193916502500E-002  4.094899906240100E-002 
 4.196043933924200E-002  4.299686219092100E-002  4.405888468703700E-002  4.514713913880700E-002 
 4.626227347553600E-002  4.740495163038100E-002  4.857585393565200E-002  4.977567752786200E-002 
 5.100513676280000E-002  5.226496364084200E-002  5.355590824277000E-002  5.487873917636700E-002 
 5.623424403402300E-002  5.762322986166400E-002  5.904652363924700E-002  6.050497277313600E-002 
 6.199944560063200E-002  6.353083190696800E-002  6.510004345507001E-002  6.670801452841001E-002 
 6.835570248726200E-002  7.004408833869701E-002  7.177417732066300E-002  7.354699950048400E-002 
 7.536361038814600E-002  7.722509156473301E-002  7.913255132638200E-002  8.108712534414300E-002 
 8.308997734014401E-002  8.514229978044500E-002  8.724531458502199E-002  8.940027385527199E-002 
 9.160846061949700E-002  9.387118959679901E-002  9.618980797984000E-002  9.856569623694200E-002 
 1.010002689339900E-001  1.034949755766600E-001  1.060513014734100E-001  1.086707686198000E-001 
 1.113549366047100E-001  1.141054035388500E-001  1.169238070062600E-001  1.198118250393100E-001 
 1.227711771177800E-001  1.258036251925900E-001  1.289109747348500E-001  1.320950758108000E-001 
 1.353578241833200E-001  1.387011624406500E-001  1.421270811529400E-001  1.456376200574100E-001 
 1.492348692728300E-001  1.529209705438700E-001  1.566981185163100E-001  1.605685620436600E-001 
 1.645346055261400E-001  1.685986102826300E-001  1.727629959566100E-001  1.770302419567400E-001 
 1.814028889330700E-001  1.858835402897200E-001  1.904748637348800E-001  1.951795928691300E-001 
 2.000005288129900E-001  2.049405418746800E-001  2.100025732589800E-001  2.151896368184800E-001 
 2.205048208478900E-001  2.259512899228400E-001  2.315322867839300E-001  2.372511342674900E-001 
 2.431112372839000E-001  2.491160848448100E-001  2.552692521404800E-001  2.615744026683500E-001 
 2.680352904142600E-001  2.746557620874900E-001  2.814397594110500E-001  2.883913214685000E-001 
 2.955145871087800E-001  3.028137974103600E-001  3.102932982064000E-001  3.179575426721000E-001 
 3.258110939761000E-001  3.338586279973100E-001  3.421049361088400E-001  3.505549280307300E-001 
 3.592136347530900E-001  3.680862115314900E-001  3.771779409563200E-001  3.864942360979400E-001 
 3.960406437295600E-001  4.058228476296800E-001  4.158466719661300E-001  4.261180847636900E-001 
 4.366432014573600E-001  4.474282885333500E-001  4.584797672601300E-001  4.698042175114500E-001 
 4.814083816839800E-001  4.932991687115800E-001  5.054836581787500E-001  5.179691045357701E-001 
 5.307629414178000E-001  5.438727860708200E-001  5.573064438867700E-001  5.710719130507800E-001 
 5.851773893031300E-001  5.996312708189200E-001  6.144421632081400E-001  6.296188846393900E-001 
 6.451704710899800E-001  6.611061817259000E-001  6.774355044145300E-001  6.941681613735700E-001 
 7.113141149595000E-001  7.288835735990000E-001  7.468869978668899E-001  7.653351067142000E-001 
 7.842388838500400E-001  8.036095842811400E-001  8.234587410128800E-001  8.437981719159000E-001 
 8.646399867622300E-001  8.859965944352500E-001  9.078807103178000E-001  9.303053638626499E-001 
 9.532839063500600E-001  9.768300188369100E-001  1.000957720302200E+000  1.025681375993600E+000 
 1.051015705980700E+000  1.076975793918400E+000  1.103577096028200E+000  1.130835450300100E+000 
 1.158767085922500E+000  1.187388632944800E+000  1.216717132178500E+000  1.246770045343300E+000 
 1.277565265463300E+000  1.309121127520300E+000  1.341456419370000E+000  1.374590392928400E+000 
 1.408542775633800E+000  1.443333782191900E+000  1.478984126612100E+000  1.515515034539400E+000 
 1.552948255892500E+000  1.591306077813100E+000  1.630611337935000E+000  1.670887437982000E+000 
 1.712158357700200E+000  1.754448669135400E+000  1.797783551263000E+000  1.842188804979200E+000 
 1.887690868462200E+000  1.934316832913200E+000  1.982094458686200E+000  2.031052191815700E+000 
 2.081219180953600E+000  2.132625294723100E+000  2.185301139502800E+000  2.239278077648500E+000 
 2.294588246166400E+000  2.351264575846700E+000  2.409340810870200E+000  2.468851528898700E+000 
 2.529832161662500E+000  2.592319016055500E+000  2.656349295752100E+000  2.721961123357200E+000 
 2.789193563104100E+000  2.858086644112800E+000  2.928681384222300E+000  3.001019814412600E+000 
 3.075145003828600E+000  3.151101085423200E+000  3.228933282233100E+000  3.308687934304300E+000 
 3.390412526281600E+000  3.474155715680800E+000  3.559967361858100E+000  3.647898555696000E+000 
 3.738001650021700E+000  3.830330290777200E+000  3.924939448959400E+000  4.021885453348700E+000 
 4.121226024046400E+000  4.223020306840400E+000  4.327328908419300E+000  4.434213932457300E+000 
 4.543739016589000E+000  4.655969370298700E+000  4.770971813745100E+000  4.888814817544600E+000 
 5.009568543537900E+000  5.133304886563300E+000  5.260097517261400E+000  5.390021925937800E+000 
 5.523155467508500E+000  5.659577407555900E+000  5.799368969522600E+000  5.942613383069800E+000 
 6.089395933631600E+000  6.239804013192300E+000  6.393927172318100E+000  6.551857173474400E+000 
 6.713688045659200E+000  6.879516140387000E+000  7.049440189054600E+000  7.223561361724200E+000 
 7.401983327358800E+000  7.584812315544600E+000  7.772157179738500E+000  7.964129462078000E+000 
 8.160843459791399E+000  8.362416293248200E+000  8.568967975691400E+000  8.780621484691000E+000 
 8.997502835362900E+000  9.219741155396401E+000  9.447468761934600E+000  9.680821240354399E+000 
 9.919937524991200E+000  1.016495998185800E+001  1.041603449341000E+001  1.067331054539800E+001 
 1.093694131586900E+001  1.120708376637100E+001  1.148389873540000E+001  1.176755103416500E+001 
 1.205820954470900E+001  1.235604732046300E+001  1.266124168927800E+001  1.297397435900300E+001 
 1.329443152567100E+001  1.362280398435500E+001  1.395928724276800E+001  1.430408163766500E+001 
 1.465739245411500E+001  1.501943004773200E+001  1.539040996991100E+001  1.577055309616800E+001 
 1.616008575764300E+001  1.655923987585700E+001  1.696825310079000E+001  1.738736895238000E+001 
 1.781683696550400E+001  1.825691283855200E+001  1.870785858566400E+001  1.916994269273000E+001 
 1.964344027724000E+001  2.012863325208800E+001  2.062581049341400E+001  2.113526801260200E+001 
 2.165730913251300E+001  2.219224466808600E+001  2.274039311138800E+001  2.330208082123900E+001 
 2.387764221752400E+001  2.446741998029700E+001  2.507176525381000E+001  2.569103785557900E+001 
 2.632560649061200E+001  2.697584897093000E+001  2.764215244051200E+001  2.832491360579300E+001 
 2.902453897185600E+001  2.974144508446000E+001  3.047605877804700E+001  3.122881742986400E+001 
 3.200016922038200E+001  3.279057340012500E+001  3.360050056310900E+001  3.443043292701700E+001 
 3.528086462031500E+001  3.615230197643600E+001  3.704526383525400E+001  3.796028185198500E+001 
 3.889790081372900E+001  3.985867896382800E+001  4.084318833423500E+001  4.185201508609000E+001 
 4.288575985871700E+001  4.394503812722700E+001  4.503048056897000E+001  4.614273343902300E+001 
 4.728245895496700E+001  4.845033569115500E+001  4.964705898272600E+001  5.087334133960000E+001 
 5.212991287068800E+001  5.341752171859400E+001  5.473693450504300E+001  5.608893678731800E+001 
 5.747433352596400E+001  5.889394956405600E+001  6.034863011828800E+001  6.183924128221000E+001 
 6.336667054188000E+001  6.493182730426500E+001  6.653564343868000E+001  6.817907383161500E+001 
 6.986309695525600E+001  7.158871545005100E+001  7.335695672166700E+001  7.516887355269201E+001 
 7.702554472944399E+001
    </PP_R>
    <PP_RAB type="real" size="453" columns="4">
 3.049985852941890E-005  3.125320503509554E-005  3.202515919946241E-005  3.281618063168791E-005 
 3.362674029329283E-005  3.445732077853669E-005  3.530841660176550E-005  3.618053449183053E-005 
 3.707419369377828E-005  3.798992627801410E-005  3.892827745708108E-005  3.988980591027125E-005 
 4.087508411625457E-005  4.188469869392588E-005  4.291925075166727E-005  4.397935624523345E-005 
 4.506564634448937E-005  4.617876780919772E-005  4.731938337408581E-005  4.848817214342583E-005 
 4.968582999536787E-005  5.091306999625484E-005  5.217062282516097E-005  5.345923720894188E-005 
 5.477968036800332E-005  5.613273847309394E-005  5.751921711337813E-005  5.893994177607912E-005 
 6.039575833794891E-005  6.188753356889657E-005  6.341615564804826E-005  6.498253469255374E-005 
 6.658760329945914E-005  6.823231710095565E-005  6.991765533335060E-005  7.164462142008343E-005 
 7.341424356915921E-005  7.522757538531747E-005  7.708569649733615E-005  7.898971320081985E-005 
 8.094075911687965E-005  8.293999586706808E-005  8.498861376498414E-005  8.708783252497793E-005 
 8.923890198834473E-005  9.144310286745832E-005  9.370174750828437E-005  9.601618067173813E-005 
 9.838778033432999E-005  1.008179585085874E-004  1.033081620837505E-004  1.058598736872198E-004 
 1.084746125672929E-004  1.111539354977051E-004  1.138994377045000E-004  1.167127538158007E-004 
 1.195955588350500E-004  1.225495691382757E-004  1.255765434959913E-004  1.286782841203423E-004 
 1.318566377381154E-004  1.351134966902459E-004  1.384508000584951E-004  1.418705348199403E-004 
 1.453747370299940E-004  1.489654930346336E-004  1.526449407125881E-004  1.564152707481896E-004 
 1.602787279356715E-004  1.642376125156824E-004  1.682942815448198E-004  1.724511502989751E-004 
 1.767106937113604E-004  1.810754478460323E-004  1.855480114078275E-004  1.901310472896013E-004 
 1.948272841576544E-004  1.996395180763499E-004  2.045706141728351E-004  2.096235083429035E-004 
 2.148012089989732E-004  2.201067988612485E-004  2.255434367931209E-004  2.311143596819099E-004 
 2.368228843660538E-004  2.426724096098953E-004  2.486664181272665E-004  2.548084786549958E-004 
 2.611022480777849E-004  2.675514736053000E-004  2.741599950033475E-004  2.809317468799469E-004 
 2.878707610278673E-004  2.949811688252582E-004  3.022672036952323E-004  3.097332036265196E-004 
 3.173836137560975E-004  3.252229890158717E-004  3.332559968445523E-004  3.414874199666304E-004 
 3.499221592397959E-004  3.585652365730174E-004  3.674217979163585E-004  3.764971163248952E-004 
 3.857965950981283E-004  3.953257709970588E-004  4.050903175406862E-004  4.150960483839288E-004 
 4.253489207790162E-004  4.358550391222564E-004  4.466206585885703E-004  4.576521888557192E-004 
 4.689561979204473E-004  4.805394160091004E-004  4.924087395845262E-004  5.045712354522585E-004 
 5.170341449679114E-004  5.298048883486393E-004  5.428910690908341E-004  5.563004784973778E-004 
 5.700411003162809E-004  5.841211154940720E-004  5.985489070467977E-004  6.133330650508471E-004 
 6.284823917576083E-004  6.440059068340026E-004  6.599128527328017E-004  6.762127001953150E-004 
 6.929151538901297E-004  7.100301581912244E-004  7.275679030985521E-004  7.455388303050727E-004 
 7.639536394136237E-004  7.828232943071212E-004  8.021590296765062E-004  8.219723577095332E-004 
 8.422750749449432E-004  8.630792692960926E-004  8.843973272477007E-004  9.062419412307139E-004 
 9.286261171791237E-004  9.515631822734393E-004  9.750667928756057E-004  9.991509426596301E-004 
 1.023829970943316E-003  1.049118571225609E-003  1.075031799934888E-003  1.101585085393284E-003 
 1.128794237002509E-003  1.156675454656453E-003  1.185245338386482E-003  1.214520898244613E-003 
 1.244519564431251E-003  1.275259197672723E-003  1.306758099855220E-003  1.339035024921658E-003 
 1.372109190037216E-003  1.406000287031151E-003  1.440728494120818E-003  1.476314487925592E-003 
 1.512779455777343E-003  1.550145108335053E-003  1.588433692510926E-003  1.627668004715941E-003 
 1.667871404432431E-003  1.709067828121903E-003  1.751281803476519E-003  1.794538464022404E-003 
 1.838863564083758E-003  1.884283494116622E-003  1.930825296421305E-003  1.978516681242895E-003 
 2.027386043269611E-003  2.077462478538357E-003  2.128775801758255E-003  2.181356564061683E-003 
 2.235236071194001E-003  2.290446402152503E-003  2.347020428285672E-003  2.404991832864327E-003 
 2.464395131135966E-003  2.525265690875036E-003  2.587639753439808E-003  2.651554455349692E-003 
 2.717047850396853E-003  2.784158932301744E-003  2.852927657929607E-003  2.923394971080355E-003 
 2.995602826866017E-003  3.069594216689628E-003  3.145413193841935E-003  3.223104899729812E-003 
 3.302715590752973E-003  3.384292665844620E-003  3.467884694691128E-003  3.553541446649812E-003 
 3.641313920382111E-003  3.731254374215576E-003  3.823416357258857E-003  3.917854741283081E-003 
 4.014625753392813E-003  4.113787009501477E-003  4.215397548636139E-003  4.319517868087494E-003 
 4.426209959429220E-003  4.535537345427199E-003  4.647565117859347E-003  4.762359976270435E-003 
 4.879990267684131E-003  5.000526027296152E-003  5.124039020170255E-003  5.250602783968539E-003 
 5.380292672732404E-003  5.513185901749068E-003  5.649361593522168E-003  5.788900824882091E-003 
 5.931886675256751E-003  6.078404276135536E-003  6.228540861756163E-003  6.382385821041544E-003 
 6.540030750821312E-003  6.701569510366544E-003  6.867098277272573E-003  7.036715604721134E-003 
 7.210522480157943E-003  7.388622385417677E-003  7.571121358337593E-003  7.758128055888580E-003 
 7.949753818869004E-003  8.146112738195077E-003  8.347321722828410E-003  8.553500569382312E-003 
 8.764772033446078E-003  8.981261902672165E-003  9.203099071668221E-003  9.430415618738398E-003 
 9.663346884521258E-003  9.902031552568930E-003  1.014661173191731E-002  1.039723304169558E-002 
 1.065404469782563E-002  1.091719960186176E-002  1.118685443202790E-002  1.146316973649886E-002 
 1.174631002899031E-002  1.203644388670651E-002  1.233374405070801E-002  1.263838752876062E-002 
 1.295055570072092E-002  1.327043442652874E-002  1.359821415686401E-002  1.393409004653872E-002 
 1.427826207068812E-002  1.463093514383419E-002  1.499231924188671E-002  1.536262952716153E-002 
 1.574208647648235E-002  1.613091601245140E-002  1.652934963795896E-002  1.693762457401657E-002 
 1.735598390099485E-002  1.778467670334943E-002  1.822395821792203E-002  1.867408998590465E-002 
 1.913534000855648E-002  1.960798290676792E-002  2.009230008456499E-002  2.058857989665379E-002 
 2.109711782010132E-002  2.161821663025765E-002  2.215218658102500E-002  2.269934558957632E-002 
 2.326001942563892E-002  2.383454190545228E-002  2.442325509051740E-002  2.502650949125161E-002 
 2.564466427568694E-002  2.627808748329584E-002  2.692715624413363E-002  2.759225700336381E-002 
 2.827378575134660E-002  2.897214825940521E-002  2.968776032141162E-002  3.042104800135027E-002 
 3.117244788698412E-002  3.194240734979401E-002  3.273138481133267E-002  3.353985001617163E-002 
 3.436828431157275E-002  3.521718093406725E-002  3.608704530314018E-002  3.697839532212728E-002 
 3.789176168658326E-002  3.882768820024322E-002  3.978673209878718E-002  4.076946438162736E-002 
 4.177647015185464E-002  4.280834896460557E-002  4.386571518403025E-002  4.494919834907589E-002 
 4.605944354829841E-002  4.719711180394097E-002  4.836288046549939E-002  4.955744361299603E-002 
 5.078151247023830E-002  5.203581582825188E-002  5.332110047921065E-002  5.463813166104670E-002 
 5.598769351307410E-002  5.737058954284679E-002  5.878764310455722E-002  6.023969788923993E-002 
 6.172761842710421E-002  6.325229060225213E-002  6.481462218012847E-002  6.641554334797820E-002 
 6.805600726867270E-002  6.973699064820962E-002  7.145949431721829E-002  7.322454382685381E-002 
 7.503319005937732E-002  7.688650985384476E-002  7.878560664723343E-002  8.073161113142113E-002 
 8.272568192636684E-002  8.476900626994918E-002  8.686280072481653E-002  8.900831190271963E-002 
 9.120681720671703E-002  9.345962559172205E-002  9.576807834383766E-002  9.813354987893053E-002 
 1.005574485609398E-001  1.030412175403963E-001  1.055863356136427E-001  1.081943181033007E-001 
 1.108667177604524E-001  1.136051256891344E-001  1.164111722936565E-001  1.192865282493097E-001 
 1.222329054970664E-001  1.252520582628443E-001  1.283457841019362E-001  1.315159249692551E-001 
 1.347643683159966E-001  1.380930482134003E-001  1.415039465042729E-001  1.449990939829283E-001 
 1.485805716043060E-001  1.522505117229324E-001  1.560110993624876E-001  1.598645735167421E-001 
 1.638132284826052E-001  1.678594152261260E-001  1.720055427822123E-001  1.762540796889317E-001 
 1.806075554572486E-001  1.850685620770436E-001  1.896397555603453E-001  1.943238575226848E-001 
 1.991236568034969E-001  2.040420111265422E-001  2.090818488013670E-001  2.142461704667613E-001 
 2.195380508772911E-001  2.249606407339611E-001  2.305171685600877E-001  2.362109426235222E-001 
 2.420453529063244E-001  2.480238731230988E-001  2.541500627892420E-001  2.604275693401551E-001 
 2.668601303028489E-001  2.734515755213301E-001  2.802058294366981E-001  2.871269134237997E-001 
 2.942189481853705E-001  3.014861562055416E-001  3.089328642638078E-001  3.165635060111198E-001 
 3.243826246096098E-001  3.323948754374653E-001  3.406050288607568E-001  3.490179730736329E-001 
 3.576387170085437E-001  3.664723933186635E-001  3.755242614336349E-001  3.847997106910506E-001 
 3.943042635451110E-001  4.040435788546806E-001  4.140234552523749E-001  4.242498345971205E-001 
 4.347288055116745E-001  4.454666070078142E-001  4.564696322009014E-001  4.677444321162661E-001 
 4.792977195895274E-001  4.911363732633929E-001  5.032674416829848E-001  5.156981474925709E-001 
 5.284358917356308E-001  5.414882582614992E-001  5.548630182405648E-001  5.685681347910999E-001 
 5.826117677204498E-001  5.970022783831487E-001  6.117482346592042E-001  6.268584160552840E-001 
 6.423418189318544E-001  6.582076618594683E-001  6.744653911073979E-001  6.911246862677592E-001 
 7.081954660185709E-001  7.256878940292090E-001  7.436123850117509E-001  7.619796109215226E-001 
 7.808005073112929E-001  8.000862798418712E-001  8.198484109539877E-001  8.400986667045319E-001 
 8.608491037721504E-001  8.821120766353034E-001  9.039002449281962E-001  9.262265809779282E-001 
 9.491043775280823E-001  9.725472556530232E-001  9.965691728676640E-001  1.021184431437480E+000 
 1.046407686894000E+000  1.072253956760275E+000  1.098738629492265E+000  1.125877473640711E+000 
 1.153686647239639E+000  1.182182707426466E+000  1.211382620299887E+000  1.241303771021311E+000 
 1.271963974165534E+000  1.303381484327423E+000  1.335575006990304E+000  1.368563709662975E+000 
 1.402367233291632E+000  1.437005703953952E+000  1.472499744841610E+000  1.508870488539205E+000 
 1.546139589606109E+000  1.584329237469394E+000  1.623462169634879E+000  1.663561685224851E+000 
 1.704651658849907E+000  1.746756554823504E+000  1.789901441727639E+000  1.834112007338307E+000 
 1.879414573919576E+000
    </PP_RAB>
  </PP_MESH>
  <PP_NLCC type="real" size="453" columns="4">
 1.431478875253937E+000  1.431478870846062E+000  1.431478866103961E+000  1.431478861002169E+000 
 1.431478855513393E+000  1.431478849608426E+000  1.431478843255598E+000  1.431478836421086E+000 
 1.431478829068287E+000  1.431478821157888E+000  1.431478812647794E+000  1.431478803492326E+000 
 1.431478793642784E+000  1.431478783046487E+000  1.431478771646855E+000  1.431478759383091E+000 
 1.431478746189624E+000  1.431478731996027E+000  1.431478716726622E+000  1.431478700299922E+000 
 1.431478682628153E+000  1.431478663617175E+000  1.431478643165367E+000  1.431478621163867E+000 
 1.431478597495139E+000  1.431478572032974E+000  1.431478544641692E+000  1.431478515175189E+000 
 1.431478483476379E+000  1.431478449376239E+000  1.431478412693173E+000  1.431478373231580E+000 
 1.431478330781217E+000  1.431478285116003E+000  1.431478235992591E+000  1.431478183149489E+000 
 1.431478126305312E+000  1.431478065157346E+000  1.431477999380120E+000  1.431477928623652E+000 
 1.431477852511382E+000  1.431477770638419E+000  1.431477682569235E+000  1.431477587835518E+000 
 1.431477485933541E+000  1.431477376321542E+000  1.431477258417094E+000  1.431477131593602E+000 
 1.431476995177365E+000  1.431476848443749E+000  1.431476690613691E+000  1.431476520849240E+000 
 1.431476338249422E+000  1.431476141845219E+000  1.431475930594804E+000  1.431475703377727E+000 
 1.431475458989423E+000  1.431475196134292E+000  1.431474913419568E+000  1.431474609347444E+000 
 1.431474282307591E+000  1.431473930568482E+000  1.431473552268482E+000  1.431473145405821E+000 
 1.431472707828483E+000  1.431472237222754E+000  1.431471731101122E+000  1.431471186789068E+000 
 1.431470601411697E+000  1.431469971877980E+000  1.431469294865240E+000  1.431468566801483E+000 
 1.431467783846778E+000  1.431466941873680E+000  1.431466036445267E+000  1.431465062792144E+000 
 1.431464015788167E+000  1.431462889923076E+000  1.431461679274714E+000  1.431460377477680E+000 
 1.431458977690856E+000  1.431457472561604E+000  1.431455854188200E+000  1.431454114078850E+000 
 1.431452243107770E+000  1.431450231468548E+000  1.431448068623139E+000  1.431445743248223E+000 
 1.431443243176646E+000  1.431440555335420E+000  1.431437665678166E+000  1.431434559113893E+000 
 1.431431219429167E+000  1.431427629205992E+000  1.431423769732522E+000  1.431419620907886E+000 
 1.431415161140088E+000  1.431410367236275E+000  1.431405214284959E+000  1.431399675530044E+000 
 1.431393722235549E+000  1.431387323540376E+000  1.431380446302655E+000  1.431373054933353E+000 
 1.431365111216820E+000  1.431356574119730E+000  1.431347399584971E+000  1.431337540312091E+000 
 1.431326945520796E+000  1.431315560698209E+000  1.431303327327993E+000  1.431290182600126E+000 
 1.431276059099837E+000  1.431260884474812E+000  1.431244581078606E+000  1.431227065588593E+000 
 1.431208248597335E+000  1.431188034174985E+000  1.431166319400976E+000  1.431142993862522E+000 
 1.431117939118820E+000  1.431091028126587E+000  1.431062124626830E+000  1.431031082488255E+000 
 1.430997745005392E+000  1.430961944148024E+000  1.430923499759121E+000  1.430882218697554E+000 
 1.430837893922001E+000  1.430790303512140E+000  1.430739209623403E+000  1.430684357370899E+000 
 1.430625473637027E+000  1.430562265800144E+000  1.430494420376022E+000  1.430421601570093E+000 
 1.430343449732371E+000  1.430259579709487E+000  1.430169579088886E+000  1.430073006326372E+000 
 1.429969388751978E+000  1.429858220445084E+000  1.429738959972351E+000  1.429611027979309E+000 
 1.429473804627562E+000  1.429326626868783E+000  1.429168785545312E+000  1.428999522308434E+000 
 1.428818026343530E+000  1.428623430891585E+000  1.428414809555843E+000  1.428191172382212E+000 
 1.427951461700867E+000  1.427694547717977E+000  1.427419223842439E+000  1.427124201736870E+000 
 1.426808106077519E+000  1.426469469009618E+000  1.426106724283962E+000  1.425718201060843E+000 
 1.425302117364408E+000  1.424856573175411E+000  1.424379543144947E+000  1.423868868915534E+000 
 1.423322251033665E+000  1.422737240439628E+000  1.422111229520691E+000  1.421441442712049E+000 
 1.420724926633834E+000  1.419958539751611E+000  1.419138941547318E+000  1.418262581193007E+000 
 1.417325685716557E+000  1.416324247654271E+000  1.415254012184801E+000  1.414110463743012E+000 
 1.412888812115098E+000  1.411583978018428E+000  1.410190578176234E+000  1.408702909898519E+000 
 1.407114935188446E+000  1.405420264398563E+000  1.403612139465813E+000  1.401683416765696E+000 
 1.399626549630211E+000  1.397433570585529E+000  1.395096073376555E+000  1.392605194853902E+000 
 1.389951596815428E+000  1.387125447904507E+000  1.384116405686558E+000  1.380913599039266E+000 
 1.377505611011915E+000  1.373880462330087E+000  1.370025595742383E+000  1.365927861432036E+000 
 1.361573503741162E+000  1.356948149483459E+000  1.352036798153229E+000  1.346823814369339E+000 
 1.341292922929087E+000  1.335427206884649E+000  1.329209109093174E+000  1.322620437736037E+000 
 1.315642376344325E+000  1.308255498918083E+000  1.300439790771152E+000  1.292174675788604E+000 
 1.283439050831421E+000  1.274211328080152E+000  1.264469486159374E+000  1.254191130941646E+000 
 1.243353566979432E+000  1.231933880567588E+000  1.219909035484049E+000  1.207255982502522E+000 
 1.193951783807557E+000  1.179973753472347E+000  1.165299615180398E+000  1.149907678377580E+000 
 1.133777034034385E+000  1.116887771168584E+000  1.099221215226781E+000  1.080760189345536E+000 
 1.061489299396827E+000  1.041395243572669E+000  1.020467147062250E+000  9.986969221227280E-001 
 9.760796535276705E-001  9.526140089889001E-001  9.283026736712143E-001  9.031528073527032E-001 