
     Program PWSCF v.7.1 starts on 30Mar2024 at 11:43: 9 

     This program is part of the open-source Quantum ESPRESSO suite
     for quantum simulation of materials; please cite
         "P. Giannozzi et al., J. Phys.:Condens. Matter 21 395502 (2009);
         "P. Giannozzi et al., J. Phys.:Condens. Matter 29 465901 (2017);
         "P. Giannozzi et al., J. Chem. Phys. 152 154105 (2020);
          URL http://www.quantum-espresso.org", 
     in publications or presentations arising from this work. More details at
     http://www.quantum-espresso.org/quote

     Parallel version (MPI & OpenMP), running on       4 processor cores
     Number of MPI processes:                 2
     Threads/MPI process:                     2

     MPI processes distributed on     1 nodes
     67617 MiB available memory on the printing compute node when the environment starts

     Waiting for input...
     Reading input from standard input

     Current dimensions of program PWSCF are:
     Max number of different atomic species (ntypx) = 10
     Max number of k-points (npk) =  40000
     Max angular momentum in pseudopotentials (lmaxx) =  4

     Atomic positions and unit cell read from directory:
     ./LiF.save/
     Atomic positions from file used, from input discarded

     file Li.LDA.cpi.UPF: wavefunction(s)  2p 3d 3f renormalized
     file F.LDA.cpi.UPF: wavefunction(s)  3d 4f renormalized

     R & G space division:  proc/nbgrp/npool/nimage =       2
     Subspace diagonalization in iterative solution of the eigenvalue problem:
     a serial algorithm will be used


     Parallelization info
     --------------------
     sticks:   dense  smooth     PW     G-vecs:    dense   smooth      PW
     Min         324     324     99                 5507     5507     917
     Max         325     325    100                 5510     5510     920
     Sum         649     649    199                11017    11017    1837

     Using Slab Decomposition



     bravais-lattice index     =            2
     lattice parameter (alat)  =       7.7035  a.u.
     unit-cell volume          =     114.2879 (a.u.)^3
     number of atoms/cell      =            2
     number of atomic types    =            2
     number of electrons       =         8.00
     number of Kohn-Sham states=           10
     kinetic-energy cutoff     =      80.0000  Ry
     charge density cutoff     =     320.0000  Ry
     Exchange-correlation= SLA  PZ   NOGX NOGC
                           (   1   1   0   0   0   0   0)

     celldm(1)=   7.703476  celldm(2)=   0.000000  celldm(3)=   0.000000
     celldm(4)=   0.000000  celldm(5)=   0.000000  celldm(6)=   0.000000

     crystal axes: (cart. coord. in units of alat)
               a(1) = (  -0.500000   0.000000   0.500000 )  
               a(2) = (   0.000000   0.500000   0.500000 )  
               a(3) = (  -0.500000   0.500000   0.000000 )  

     reciprocal axes: (cart. coord. in units 2 pi/alat)
               b(1) = ( -1.000000 -1.000000  1.000000 )  
               b(2) = (  1.000000  1.000000  1.000000 )  
               b(3) = ( -1.000000  1.000000 -1.000000 )  


     PseudoPot. # 1 for Li read from file:
     ../psps/Li.LDA.cpi.UPF
     MD5 check sum: 0f19fbf76817a66445c6a3c93a4d1b75
     Pseudo is Norm-conserving + core correction, Zval =  1.0
     Generated by new atomic code, or converted to UPF format
     Using radial grid of  433 points,  3 beta functions with: 
                l(1) =   0
                l(2) =   1
                l(3) =   2

     PseudoPot. # 2 for F  read from file:
     ../psps/F.LDA.cpi.UPF
     MD5 check sum: 1675c15be16d9b2e493cc71bbe4b150f
     Pseudo is Norm-conserving, Zval =  7.0
     Generated by new atomic code, or converted to UPF format
     Using radial grid of  477 points,  3 beta functions with: 
                l(1) =   0
                l(2) =   1
                l(3) =   2

     atomic species   valence    mass     pseudopotential
        Li             1.00     6.94100     Li( 1.00)
        F              7.00    18.99840     F ( 1.00)

     48 Sym. Ops., with inversion, found


                                    s                        frac. trans.

      isym =  1     identity                                     

 cryst.   s( 1) = (     1          0          0      )
                  (     0          1          0      )
                  (     0          0          1      )

 cart.    s( 1) = (  1.0000000  0.0000000  0.0000000 )
                  (  0.0000000  1.0000000  0.0000000 )
                  (  0.0000000  0.0000000  1.0000000 )


      isym =  2     180 deg rotation - cart. axis [0,0,1]        

 cryst.   s( 2) = (     0          1         -1      )
                  (     1          0         -1      )
                  (     0          0         -1      )

 cart.    s( 2) = ( -1.0000000  0.0000000  0.0000000 )
                  (  0.0000000 -1.0000000  0.0000000 )
                  (  0.0000000  0.0000000  1.0000000 )


      isym =  3     180 deg rotation - cart. axis [0,1,0]        

 cryst.   s( 3) = (    -1          0          0      )
                  (    -1          0          1      )
                  (    -1          1          0      )

 cart.    s( 3) = ( -1.0000000  0.0000000  0.0000000 )
                  (  0.0000000  1.0000000  0.0000000 )
                  (  0.0000000  0.0000000 -1.0000000 )


      isym =  4     180 deg rotation - cart. axis [1,0,0]        

 cryst.   s( 4) = (     0         -1          1      )
                  (     0         -1          0      )
                  (     1         -1          0      )

 cart.    s( 4) = (  1.0000000  0.0000000  0.0000000 )
                  (  0.0000000 -1.0000000  0.0000000 )
                  (  0.0000000  0.0000000 -1.0000000 )


      isym =  5     180 deg rotation - cart. axis [1,1,0]        

 cryst.   s( 5) = (     0         -1          0      )
                  (    -1          0          0      )
                  (     0          0         -1      )

 cart.    s( 5) = (  0.0000000  1.0000000  0.0000000 )
                  (  1.0000000  0.0000000  0.0000000 )
                  (  0.0000000  0.0000000 -1.0000000 )


      isym =  6     180 deg rotation - cart. axis [1,-1,0]       

 cryst.   s( 6) = (    -1          0          1      )
                  (     0         -1          1      )
                  (     0          0          1      )

 cart.    s( 6) = (  0.0000000 -1.0000000  0.0000000 )
                  ( -1.0000000  0.0000000  0.0000000 )
                  (  0.0000000  0.0000000 -1.0000000 )


      isym =  7      90 deg rotation - cart. axis [0,0,-1]       

 cryst.   s( 7) = (     0          1          0      )
                  (     0          1         -1      )
                  (    -1          1          0      )

 cart.    s( 7) = (  0.0000000  1.0000000  0.0000000 )
                  ( -1.0000000  0.0000000  0.0000000 )
                  (  0.0000000  0.0000000  1.0000000 )


      isym =  8      90 deg rotation - cart. axis [0,0,1]        

 cryst.   s( 8) = (     1          0         -1      )
                  (     1          0          0      )
                  (     1         -1          0      )

 cart.    s( 8) = (  0.0000000 -1.0000000  0.0000000 )
                  (  1.0000000  0.0000000  0.0000000 )
                  (  0.0000000  0.0000000  1.0000000 )


      isym =  9     180 deg rotation - cart. axis [1,0,1]        

 cryst.   s( 9) = (    -1          0          0      )
                  (     0          0         -1      )
                  (     0         -1          0      )

 cart.    s( 9) = (  0.0000000  0.0000000  1.0000000 )
                  (  0.0000000 -1.0000000  0.0000000 )
                  (  1.0000000  0.0000000  0.0000000 )


      isym = 10     180 deg rotation - cart. axis [-1,0,1]       

 cryst.   s(10) = (     1          0          0      )
                  (     1         -1          0      )
                  (     1          0         -1      )

 cart.    s(10) = (  0.0000000  0.0000000 -1.0000000 )
                  (  0.0000000 -1.0000000  0.0000000 )
                  ( -1.0000000  0.0000000  0.0000000 )


      isym = 11      90 deg rotation - cart. axis [0,1,0]        

 cryst.   s(11) = (     0          1         -1      )
                  (    -1          1          0      )
                  (     0          1          0      )

 cart.    s(11) = (  0.0000000  0.0000000  1.0000000 )
                  (  0.0000000  1.0000000  0.0000000 )
                  ( -1.0000000  0.0000000  0.0000000 )


      isym = 12      90 deg rotation - cart. axis [0,-1,0]       

 cryst.   s(12) = (     0         -1          1      )
                  (     0          0          1      )
                  (    -1          0          1      )

 cart.    s(12) = (  0.0000000  0.0000000 -1.0000000 )
                  (  0.0000000  1.0000000  0.0000000 )
                  (  1.0000000  0.0000000  0.0000000 )


      isym = 13     180 deg rotation - cart. axis [0,1,1]        

 cryst.   s(13) = (    -1          1          0      )
                  (     0          1          0      )
                  (     0          1         -1      )

 cart.    s(13) = ( -1.0000000  0.0000000  0.0000000 )
                  (  0.0000000  0.0000000  1.0000000 )
                  (  0.0000000  1.0000000  0.0000000 )


      isym = 14     180 deg rotation - cart. axis [0,1,-1]       

 cryst.   s(14) = (     0          0         -1      )
                  (     0         -1          0      )
                  (    -1          0          0      )

 cart.    s(14) = ( -1.0000000  0.0000000  0.0000000 )
                  (  0.0000000  0.0000000 -1.0000000 )
                  (  0.0000000 -1.0000000  0.0000000 )


      isym = 15      90 deg rotation - cart. axis [-1,0,0]       

 cryst.   s(15) = (     0          0          1      )
                  (    -1          0          1      )
                  (     0         -1          1      )

 cart.    s(15) = (  1.0000000  0.0000000  0.0000000 )
                  (  0.0000000  0.0000000  1.0000000 )
                  (  0.0000000 -1.0000000  0.0000000 )


      isym = 16      90 deg rotation - cart. axis [1,0,0]        

 cryst.   s(16) = (     1         -1          0      )
                  (     1          0         -1      )
                  (     1          0          0      )

 cart.    s(16) = (  1.0000000  0.0000000  0.0000000 )
                  (  0.0000000  0.0000000 -1.0000000 )
                  (  0.0000000  1.0000000  0.0000000 )


      isym = 17     120 deg rotation - cart. axis [-1,-1,-1]     

 cryst.   s(17) = (    -1          0          1      )
                  (    -1          1          0      )
                  (    -1          0          0      )

 cart.    s(17) = (  0.0000000  1.0000000  0.0000000 )
                  (  0.0000000  0.0000000  1.0000000 )
                  (  1.0000000  0.0000000  0.0000000 )


      isym = 18     120 deg rotation - cart. axis [-1,1,1]       

 cryst.   s(18) = (     0          1          0      )
                  (     0          0          1      )
                  (     1          0          0      )

 cart.    s(18) = (  0.0000000 -1.0000000  0.0000000 )
                  (  0.0000000  0.0000000  1.0000000 )
                  ( -1.0000000  0.0000000  0.0000000 )


      isym = 19     120 deg rotation - cart. axis [1,1,-1]       

 cryst.   s(19) = (     1          0         -1      )
                  (     0          0         -1      )
                  (     0          1         -1      )

 cart.    s(19) = (  0.0000000  1.0000000  0.0000000 )
                  (  0.0000000  0.0000000 -1.0000000 )
                  ( -1.0000000  0.0000000  0.0000000 )


      isym = 20     120 deg rotation - cart. axis [1,-1,1]       

 cryst.   s(20) = (     0         -1          0      )
                  (     1         -1          0      )
                  (     0         -1          1      )

 cart.    s(20) = (  0.0000000 -1.0000000  0.0000000 )
                  (  0.0000000  0.0000000 -1.0000000 )
                  (  1.0000000  0.0000000  0.0000000 )


      isym = 21     120 deg rotation - cart. axis [1,1,1]        

 cryst.   s(21) = (     0          0         -1      )
                  (     0          1         -1      )
                  (     1          0         -1      )

 cart.    s(21) = (  0.0000000  0.0000000  1.0000000 )
                  (  1.0000000  0.0000000  0.0000000 )
                  (  0.0000000  1.0000000  0.0000000 )


      isym = 22     120 deg rotation - cart. axis [-1,1,-1]      

 cryst.   s(22) = (    -1          1          0      )
                  (    -1          0          0      )
                  (    -1          0          1      )

 cart.    s(22) = (  0.0000000  0.0000000  1.0000000 )
                  ( -1.0000000  0.0000000  0.0000000 )
                  (  0.0000000 -1.0000000  0.0000000 )


      isym = 23     120 deg rotation - cart. axis [1,-1,-1]      

 cryst.   s(23) = (     0          0          1      )
                  (     1          0          0      )
                  (     0          1          0      )

 cart.    s(23) = (  0.0000000  0.0000000 -1.0000000 )
                  ( -1.0000000  0.0000000  0.0000000 )
                  (  0.0000000  1.0000000  0.0000000 )


      isym = 24     120 deg rotation - cart. axis [-1,-1,1]      

 cryst.   s(24) = (     1         -1          0      )
                  (     0         -1          1      )
                  (     0         -1          0      )

 cart.    s(24) = (  0.0000000  0.0000000 -1.0000000 )
                  (  1.0000000  0.0000000  0.0000000 )
                  (  0.0000000 -1.0000000  0.0000000 )


      isym = 25     inversion                                    

 cryst.   s(25) = (    -1          0          0      )
                  (     0         -1          0      )
                  (     0          0         -1      )

 cart.    s(25) = ( -1.0000000  0.0000000  0.0000000 )
                  (  0.0000000 -1.0000000  0.0000000 )
                  (  0.0000000  0.0000000 -1.0000000 )


      isym = 26     inv. 180 deg rotation - cart. axis [0,0,1]   

 cryst.   s(26) = (     0         -1          1      )
                  (    -1          0          1      )
                  (     0          0          1      )

 cart.    s(26) = (  1.0000000  0.0000000  0.0000000 )
                  (  0.0000000  1.0000000  0.0000000 )
                  (  0.0000000  0.0000000 -1.0000000 )


      isym = 27     inv. 180 deg rotation - cart. axis [0,1,0]   

 cryst.   s(27) = (     1          0          0      )
                  (     1          0         -1      )
                  (     1         -1          0      )

 cart.    s(27) = (  1.0000000  0.0000000  0.0000000 )
                  (  0.0000000 -1.0000000  0.0000000 )
                  (  0.0000000  0.0000000  1.0000000 )


      isym = 28     inv. 180 deg rotation - cart. axis [1,0,0]   

 cryst.   s(28) = (     0          1         -1      )
                  (     0          1          0      )
                  (    -1          1          0      )

 cart.    s(28) = ( -1.0000000  0.0000000  0.0000000 )
                  (  0.0000000  1.0000000  0.0000000 )
                  (  0.0000000  0.0000000  1.0000000 )


      isym = 29     inv. 180 deg rotation - cart. axis [1,1,0]   

 cryst.   s(29) = (     0          1          0      )
                  (     1          0          0      )
                  (     0          0          1      )

 cart.    s(29) = (  0.0000000 -1.0000000  0.0000000 )
                  ( -1.0000000  0.0000000  0.0000000 )
                  (  0.0000000  0.0000000  1.0000000 )


      isym = 30     inv. 180 deg rotation - cart. axis [1,-1,0]  

 cryst.   s(30) = (     1          0         -1      )
                  (     0          1         -1      )
                  (     0          0         -1      )

 cart.    s(30) = (  0.0000000  1.0000000  0.0000000 )
                  (  1.0000000  0.0000000  0.0000000 )
                  (  0.0000000  0.0000000  1.0000000 )


      isym = 31     inv.  90 deg rotation - cart. axis [0,0,-1]  

 cryst.   s(31) = (     0         -1          0      )
                  (     0         -1          1      )
                  (     1         -1          0      )

 cart.    s(31) = (  0.0000000 -1.0000000  0.0000000 )
                  (  1.0000000  0.0000000  0.0000000 )
                  (  0.0000000  0.0000000 -1.0000000 )


      isym = 32     inv.  90 deg rotation - cart. axis [0,0,1]   

 cryst.   s(32) = (    -1          0          1      )
                  (    -1          0          0      )
                  (    -1          1          0      )

 cart.    s(32) = (  0.0000000  1.0000000  0.0000000 )
                  ( -1.0000000  0.0000000  0.0000000 )
                  (  0.0000000  0.0000000 -1.0000000 )


      isym = 33     inv. 180 deg rotation - cart. axis [1,0,1]   

 cryst.   s(33) = (     1          0          0      )
                  (     0          0          1      )
                  (     0          1          0      )

 cart.    s(33) = (  0.0000000  0.0000000 -1.0000000 )
                  (  0.0000000  1.0000000  0.0000000 )
                  ( -1.0000000  0.0000000  0.0000000 )


      isym = 34     inv. 180 deg rotation - cart. axis [-1,0,1]  

 cryst.   s(34) = (    -1          0          0      )
                  (    -1          1          0      )
                  (    -1          0          1      )

 cart.    s(34) = (  0.0000000  0.0000000  1.0000000 )
                  (  0.0000000  1.0000000  0.0000000 )
                  (  1.0000000  0.0000000  0.0000000 )


      isym = 35     inv.  90 deg rotation - cart. axis [0,1,0]   

 cryst.   s(35) = (     0         -1          1      )
                  (     1         -1          0      )
                  (     0         -1          0      )

 cart.    s(35) = (  0.0000000  0.0000000 -1.0000000 )
                  (  0.0000000 -1.0000000  0.0000000 )
                  (  1.0000000  0.0000000  0.0000000 )


      isym = 36     inv.  90 deg rotation - cart. axis [0,-1,0]  

 cryst.   s(36) = (     0          1         -1      )
                  (     0          0         -1      )
                  (     1          0         -1      )

 cart.    s(36) = (  0.0000000  0.0000000  1.0000000 )
                  (  0.0000000 -1.0000000  0.0000000 )
                  ( -1.0000000  0.0000000  0.0000000 )


      isym = 37     inv. 180 deg rotation - cart. axis [0,1,1]   

 cryst.   s(37) = (     1         -1          0      )
                  (     0         -1          0      )
                  (     0         -1          1      )

 cart.    s(37) = (  1.0000000  0.0000000  0.0000000 )
                  (  0.0000000  0.0000000 -1.0000000 )
                  (  0.0000000 -1.0000000  0.0000000 )


      isym = 38     inv. 180 deg rotation - cart. axis [0,1,-1]  

 cryst.   s(38) = (     0          0          1      )
                  (     0          1          0      )
                  (     1          0          0      )

 cart.    s(38) = (  1.0000000  0.0000000  0.0000000 )
                  (  0.0000000  0.0000000  1.0000000 )
                  (  0.0000000  1.0000000  0.0000000 )


      isym = 39     inv.  90 deg rotation - cart. axis [-1,0,0]  

 cryst.   s(39) = (     0          0         -1      )
                  (     1          0         -1      )
                  (     0          1         -1      )

 cart.    s(39) = ( -1.0000000  0.0000000  0.0000000 )
                  (  0.0000000  0.0000000 -1.0000000 )
                  (  0.0000000  1.0000000  0.0000000 )


      isym = 40     inv.  90 deg rotation - cart. axis [1,0,0]   

 cryst.   s(40) = (    -1          1          0      )
                  (    -1          0          1      )
                  (    -1          0          0      )

 cart.    s(40) = ( -1.0000000  0.0000000  0.0000000 )
                  (  0.0000000  0.0000000  1.0000000 )
                  (  0.0000000 -1.0000000  0.0000000 )


      isym = 41     inv. 120 deg rotation - cart. axis [-1,-1,-1]

 cryst.   s(41) = (     1          0         -1      )
                  (     1         -1          0      )
                  (     1          0          0      )

 cart.    s(41) = (  0.0000000 -1.0000000  0.0000000 )
                  (  0.0000000  0.0000000 -1.0000000 )
                  ( -1.0000000  0.0000000  0.0000000 )


      isym = 42     inv. 120 deg rotation - cart. axis [-1,1,1]  

 cryst.   s(42) = (     0         -1          0      )
                  (     0          0         -1      )
                  (    -1          0          0      )

 cart.    s(42) = (  0.0000000  1.0000000  0.0000000 )
                  (  0.0000000  0.0000000 -1.0000000 )
                  (  1.0000000  0.0000000  0.0000000 )


      isym = 43     inv. 120 deg rotation - cart. axis [1,1,-1]  

 cryst.   s(43) = (    -1          0          1      )
                  (     0          0          1      )
                  (     0         -1          1      )

 cart.    s(43) = (  0.0000000 -1.0000000  0.0000000 )
                  (  0.0000000  0.0000000  1.0000000 )
                  (  1.0000000  0.0000000  0.0000000 )


      isym = 44     inv. 120 deg rotation - cart. axis [1,-1,1]  

 cryst.   s(44) = (     0          1          0      )
                  (    -1          1          0      )
                  (     0          1         -1      )

 cart.    s(44) = (  0.0000000  1.0000000  0.0000000 )
                  (  0.0000000  0.0000000  1.0000000 )
                  ( -1.0000000  0.0000000  0.0000000 )


      isym = 45     inv. 120 deg rotation - cart. axis [1,1,1]   

 cryst.   s(45) = (     0          0          1      )
                  (     0         -1          1      )
                  (    -1          0          1      )

 cart.    s(45) = (  0.0000000  0.0000000 -1.0000000 )
                  ( -1.0000000  0.0000000  0.0000000 )
                  (  0.0000000 -1.0000000  0.0000000 )


      isym = 46     inv. 120 deg rotation - cart. axis [-1,1,-1] 

 cryst.   s(46) = (     1         -1          0      )
                  (     1          0          0      )
                  (     1          0         -1      )

 cart.    s(46) = (  0.0000000  0.0000000 -1.0000000 )
                  (  1.0000000  0.0000000  0.0000000 )
                  (  0.0000000  1.0000000  0.0000000 )


      isym = 47     inv. 120 deg rotation - cart. axis [1,-1,-1] 

 cryst.   s(47) = (     0          0         -1      )
                  (    -1          0          0      )
                  (     0         -1          0      )

 cart.    s(47) = (  0.0000000  0.0000000  1.0000000 )
                  (  1.0000000  0.0000000  0.0000000 )
                  (  0.0000000 -1.0000000  0.0000000 )


      isym = 48     inv. 120 deg rotation - cart. axis [-1,-1,1] 

 cryst.   s(48) = (    -1          1          0      )
                  (     0          1         -1      )
                  (     0          1          0      )

 cart.    s(48) = (  0.0000000  0.0000000  1.0000000 )
                  ( -1.0000000  0.0000000  0.0000000 )
                  (  0.0000000  1.0000000  0.0000000 )


     point group O_h (m-3m) 
     there are 10 classes
     the character table:

       E     8C3   3C2   6C4   6C2'  i     8S6   3s_h  6S4   6s_d 
A_1g   1.00  1.00  1.00  1.00  1.00  1.00  1.00  1.00  1.00  1.00
A_2g   1.00  1.00  1.00 -1.00 -1.00  1.00  1.00  1.00 -1.00 -1.00
E_g    2.00 -1.00  2.00  0.00  0.00  2.00 -1.00  2.00  0.00  0.00
T_1g   3.00  0.00 -1.00  1.00 -1.00  3.00  0.00 -1.00  1.00 -1.00
T_2g   3.00  0.00 -1.00 -1.00  1.00  3.00  0.00 -1.00 -1.00  1.00
A_1u   1.00  1.00  1.00  1.00  1.00 -1.00 -1.00 -1.00 -1.00 -1.00
A_2u   1.00  1.00  1.00 -1.00 -1.00 -1.00 -1.00 -1.00  1.00  1.00
E_u    2.00 -1.00  2.00  0.00  0.00 -2.00  1.00 -2.00  0.00  0.00
T_1u   3.00  0.00 -1.00  1.00 -1.00 -3.00  0.00  1.00 -1.00  1.00
T_2u   3.00  0.00 -1.00 -1.00  1.00 -3.00  0.00  1.00  1.00 -1.00

     the symmetry operations in each class and the name of the first element:

     E        1
          identity                                               
     8C3     17   19   20   18   24   21   22   23
          120 deg rotation - cart. axis [-1,-1,-1]               
     3C2      2    4    3
          180 deg rotation - cart. axis [0,0,1]                  
     6C4      7    8   15   16   12   11
           90 deg rotation - cart. axis [0,0,-1]                 
     6C2'     5    6   14   13   10    9
          180 deg rotation - cart. axis [1,1,0]                  
     i       25
          inversion                                              
     8S6     41   43   44   42   48   45   46   47
          inv. 120 deg rotation - cart. axis [-1,-1,-1]          
     3s_h    26   28   27
          inv. 180 deg rotation - cart. axis [0,0,1]             
     6S4     31   32   39   40   36   35
          inv.  90 deg rotation - cart. axis [0,0,-1]            
     6s_d    29   30   38   37   34   33
          inv. 180 deg rotation - cart. axis [1,1,0]             

   Cartesian axes

     site n.     atom                  positions (alat units)
         1           Li  tau(   1) = (   0.0000000   0.0000000   0.0000000  )
         2           F   tau(   2) = (   0.0000000  -0.5000000   0.0000000  )

   Crystallographic axes

     site n.     atom                  positions (cryst. coord.)
         1           Li  tau(   1) = (  0.0000000  0.0000000  0.0000000  )
         2           F   tau(   2) = (  0.5000000 -0.5000000 -0.5000000  )

     number of k points=   121
                       cart. coord. in units 2pi/alat
        k(    1) = (  -1.0000000   0.5000000   0.0000000), wk =   0.0165289
        k(    2) = (  -0.9833333   0.5000000   0.0166667), wk =   0.0165289
        k(    3) = (  -0.9666667   0.5000000   0.0333333), wk =   0.0165289
        k(    4) = (  -0.9500000   0.5000000   0.0500000), wk =   0.0165289
        k(    5) = (  -0.9333333   0.5000000   0.0666667), wk =   0.0165289
        k(    6) = (  -0.9166667   0.5000000   0.0833333), wk =   0.0165289
        k(    7) = (  -0.9000000   0.5000000   0.1000000), wk =   0.0165289
        k(    8) = (  -0.8833333   0.5000000   0.1166667), wk =   0.0165289
        k(    9) = (  -0.8666667   0.5000000   0.1333333), wk =   0.0165289
        k(   10) = (  -0.8500000   0.5000000   0.1500000), wk =   0.0165289
        k(   11) = (  -0.8333333   0.5000000   0.1666667), wk =   0.0165289
        k(   12) = (  -0.8166667   0.5000000   0.1833333), wk =   0.0165289
        k(   13) = (  -0.8000000   0.5000000   0.2000000), wk =   0.0165289
        k(   14) = (  -0.7833333   0.5000000   0.2166667), wk =   0.0165289
        k(   15) = (  -0.7666667   0.5000000   0.2333333), wk =   0.0165289
        k(   16) = (  -0.7500000   0.5000000   0.2500000), wk =   0.0165289
        k(   17) = (  -0.7333333   0.5000000   0.2666667), wk =   0.0165289
        k(   18) = (  -0.7166667   0.5000000   0.2833333), wk =   0.0165289
        k(   19) = (  -0.7000000   0.5000000   0.3000000), wk =   0.0165289
        k(   20) = (  -0.6833333   0.5000000   0.3166667), wk =   0.0165289
        k(   21) = (  -0.6666667   0.5000000   0.3333333), wk =   0.0165289
        k(   22) = (  -0.6500000   0.5000000   0.3500000), wk =   0.0165289
        k(   23) = (  -0.6333333   0.5000000   0.3666667), wk =   0.0165289
        k(   24) = (  -0.6166667   0.5000000   0.3833333), wk =   0.0165289
        k(   25) = (  -0.6000000   0.5000000   0.4000000), wk =   0.0165289
        k(   26) = (  -0.5833333   0.5000000   0.4166667), wk =   0.0165289
        k(   27) = (  -0.5666667   0.5000000   0.4333333), wk =   0.0165289
        k(   28) = (  -0.5500000   0.5000000   0.4500000), wk =   0.0165289
        k(   29) = (  -0.5333333   0.5000000   0.4666667), wk =   0.0165289
        k(   30) = (  -0.5166667   0.5000000   0.4833333), wk =   0.0165289
        k(   31) = (  -0.5000000   0.5000000   0.5000000), wk =   0.0165289
        k(   32) = (  -0.4833333   0.4833333   0.4833333), wk =   0.0165289
        k(   33) = (  -0.4666667   0.4666667   0.4666667), wk =   0.0165289
        k(   34) = (  -0.4500000   0.4500000   0.4500000), wk =   0.0165289
        k(   35) = (  -0.4333333   0.4333333   0.4333333), wk =   0.0165289
        k(   36) = (  -0.4166667   0.4166667   0.4166667), wk =   0.0165289
        k(   37) = (  -0.4000000   0.4000000   0.4000000), wk =   0.0165289
        k(   38) = (  -0.3833333   0.3833333   0.3833333), wk =   0.0165289
        k(   39) = (  -0.3666667   0.3666667   0.3666667), wk =   0.0165289
        k(   40) = (  -0.3500000   0.3500000   0.3500000), wk =   0.0165289
        k(   41) = (  -0.3333333   0.3333333   0.3333333), wk =   0.0165289
        k(   42) = (  -0.3166667   0.3166667   0.3166667), wk =   0.0165289
        k(   43) = (  -0.3000000   0.3000000   0.3000000), wk =   0.0165289
        k(   44) = (  -0.2833333   0.2833333   0.2833333), wk =   0.0165289
        k(   45) = (  -0.2666667   0.2666667   0.2666667), wk =   0.0165289
        k(   46) = (  -0.2500000   0.2500000   0.2500000), wk =   0.0165289
        k(   47) = (  -0.2333333   0.2333333   0.2333333), wk =   0.0165289
        k(   48) = (  -0.2166667   0.2166667   0.2166667), wk =   0.0165289
        k(   49) = (  -0.2000000   0.2000000   0.2000000), wk =   0.0165289
        k(   50) = (  -0.1833333   0.1833333   0.1833333), wk =   0.0165289
        k(   51) = (  -0.1666667   0.1666667   0.1666667), wk =   0.0165289
        k(   52) = (  -0.1500000   0.1500000   0.1500000), wk =   0.0165289
        k(   53) = (  -0.1333333   0.1333333   0.1333333), wk =   0.0165289
        k(   54) = (  -0.1166667   0.1166667   0.1166667), wk =   0.0165289
        k(   55) = (  -0.1000000   0.1000000   0.1000000), wk =   0.0165289
        k(   56) = (  -0.0833333   0.0833333   0.0833333), wk =   0.0165289
        k(   57) = (  -0.0666667   0.0666667   0.0666667), wk =   0.0165289
        k(   58) = (  -0.0500000   0.0500000   0.0500000), wk =   0.0165289
        k(   59) = (  -0.0333333   0.0333333   0.0333333), wk =   0.0165289
        k(   60) = (  -0.0166667   0.0166667   0.0166667), wk =   0.0165289
        k(   61) = (   0.0000000   0.0000000   0.0000000), wk =   0.0165289
        k(   62) = (  -0.0333333   0.0000000   0.0000000), wk =   0.0165289
        k(   63) = (  -0.0666667   0.0000000   0.0000000), wk =   0.0165289
        k(   64) = (  -0.1000000   0.0000000   0.0000000), wk =   0.0165289
        k(   65) = (  -0.1333333   0.0000000   0.0000000), wk =   0.0165289
        k(   66) = (  -0.1666667   0.0000000   0.0000000), wk =   0.0165289
        k(   67) = (  -0.2000000   0.0000000   0.0000000), wk =   0.0165289
        k(   68) = (  -0.2333333   0.0000000   0.0000000), wk =   0.0165289
        k(   69) = (  -0.2666667   0.0000000   0.0000000), wk =   0.0165289
        k(   70) = (  -0.3000000   0.0000000   0.0000000), wk =   0.0165289
        k(   71) = (  -0.3333333   0.0000000   0.0000000), wk =   0.0165289
        k(   72) = (  -0.3666667   0.0000000   0.0000000), wk =   0.0165289
        k(   73) = (  -0.4000000   0.0000000   0.0000000), wk =   0.0165289
        k(   74) = (  -0.4333333   0.0000000   0.0000000), wk =   0.0165289
        k(   75) = (  -0.4666667   0.0000000   0.0000000), wk =   0.0165289
        k(   76) = (  -0.5000000   0.0000000   0.0000000), wk =   0.0165289
        k(   77) = (  -0.5333333   0.0000000   0.0000000), wk =   0.0165289
        k(   78) = (  -0.5666667   0.0000000   0.0000000), wk =   0.0165289
        k(   79) = (  -0.6000000   0.0000000   0.0000000), wk =   0.0165289
        k(   80) = (  -0.6333333   0.0000000   0.0000000), wk =   0.0165289
        k(   81) = (  -0.6666667   0.0000000   0.0000000), wk =   0.0165289
        k(   82) = (  -0.7000000   0.0000000   0.0000000), wk =   0.0165289
        k(   83) = (  -0.7333333   0.0000000   0.0000000), wk =   0.0165289
        k(   84) = (  -0.7666667   0.0000000   0.0000000), wk =   0.0165289
        k(   85) = (  -0.8000000   0.0000000   0.0000000), wk =   0.0165289
        k(   86) = (  -0.8333333   0.0000000   0.0000000), wk =   0.0165289
        k(   87) = (  -0.8666667   0.0000000   0.0000000), wk =   0.0165289
        k(   88) = (  -0.9000000   0.0000000   0.0000000), wk =   0.0165289
        k(   89) = (  -0.9333333   0.0000000   0.0000000), wk =   0.0165289
        k(   90) = (  -0.9666667   0.0000000   0.0000000), wk =   0.0165289
        k(   91) = (  -1.0000000   0.0000000   0.0000000), wk =   0.0165289
        k(   92) = (  -1.0000000   0.0166667   0.0000000), wk =   0.0165289
        k(   93) = (  -1.0000000   0.0333333   0.0000000), wk =   0.0165289
        k(   94) = (  -1.0000000   0.0500000   0.0000000), wk =   0.0165289
        k(   95) = (  -1.0000000   0.0666667   0.0000000), wk =   0.0165289
        k(   96) = (  -1.0000000   0.0833333   0.0000000), wk =   0.0165289
        k(   97) = (  -1.0000000   0.1000000   0.0000000), wk =   0.0165289
        k(   98) = (  -1.0000000   0.1166667   0.0000000), wk =   0.0165289
        k(   99) = (  -1.0000000   0.1333333   0.0000000), wk =   0.0165289
        k(  100) = (  -1.0000000   0.1500000   0.0000000), wk =   0.0165289
        k(  101) = (  -1.0000000   0.1666667   0.0000000), wk =   0.0165289
        k(  102) = (  -1.0000000   0.1833333   0.0000000), wk =   0.0165289
        k(  103) = (  -1.0000000   0.2000000   0.0000000), wk =   0.0165289
        k(  104) = (  -1.0000000   0.2166667   0.0000000), wk =   0.0165289
        k(  105) = (  -1.0000000   0.2333333   0.0000000), wk =   0.0165289
        k(  106) = (  -1.0000000   0.2500000   0.0000000), wk =   0.0165289
        k(  107) = (  -1.0000000   0.2666667   0.0000000), wk =   0.0165289
        k(  108) = (  -1.0000000   0.2833333   0.0000000), wk =   0.0165289
        k(  109) = (  -1.0000000   0.3000000   0.0000000), wk =   0.0165289
        k(  110) = (  -1.0000000   0.3166667   0.0000000), wk =   0.0165289
        k(  111) = (  -1.0000000   0.3333333   0.0000000), wk =   0.0165289
        k(  112) = (  -1.0000000   0.3500000   0.0000000), wk =   0.0165289
        k(  113) = (  -1.0000000   0.3666667   0.0000000), wk =   0.0165289
        k(  114) = (  -1.0000000   0.3833333   0.0000000), wk =   0.0165289
        k(  115) = (  -1.0000000   0.4000000   0.0000000), wk =   0.0165289
        k(  116) = (  -1.0000000   0.4166667   0.0000000), wk =   0.0165289
        k(  117) = (  -1.0000000   0.4333333   0.0000000), wk =   0.0165289
        k(  118) = (  -1.0000000   0.4500000   0.0000000), wk =   0.0165289
        k(  119) = (  -1.0000000   0.4666667   0.0000000), wk =   0.0165289
        k(  120) = (  -1.0000000   0.4833333   0.0000000), wk =   0.0165289
        k(  121) = (  -1.0000000   0.5000000   0.0000000), wk =   0.0165289

                       cryst. coord.
        k(    1) = (   0.5000000   0.2500000   0.7500000), wk =   0.0165289
        k(    2) = (   0.5000000   0.2583333   0.7416667), wk =   0.0165289
        k(    3) = (   0.5000000   0.2666667   0.7333333), wk =   0.0165289
        k(    4) = (   0.5000000   0.2750000   0.7250000), wk =   0.0165289
        k(    5) = (   0.5000000   0.2833333   0.7166667), wk =   0.0165289
        k(    6) = (   0.5000000   0.2916667   0.7083333), wk =   0.0165289
        k(    7) = (   0.5000000   0.3000000   0.7000000), wk =   0.0165289
        k(    8) = (   0.5000000   0.3083333   0.6916667), wk =   0.0165289
        k(    9) = (   0.5000000   0.3166667   0.6833333), wk =   0.0165289
        k(   10) = (   0.5000000   0.3250000   0.6750000), wk =   0.0165289
        k(   11) = (   0.5000000   0.3333333   0.6666667), wk =   0.0165289
        k(   12) = (   0.5000000   0.3416667   0.6583333), wk =   0.0165289
        k(   13) = (   0.5000000   0.3500000   0.6500000), wk =   0.0165289
        k(   14) = (   0.5000000   0.3583333   0.6416667), wk =   0.0165289
        k(   15) = (   0.5000000   0.3666667   0.6333333), wk =   0.0165289
        k(   16) = (   0.5000000   0.3750000   0.6250000), wk =   0.0165289
        k(   17) = (   0.5000000   0.3833333   0.6166667), wk =   0.0165289
        k(   18) = (   0.5000000   0.3916667   0.6083333), wk =   0.0165289
        k(   19) = (   0.5000000   0.4000000   0.6000000), wk =   0.0165289
        k(   20) = (   0.5000000   0.4083333   0.5916667), wk =   0.0165289
        k(   21) = (   0.5000000   0.4166667   0.5833333), wk =   0.0165289
        k(   22) = (   0.5000000   0.4250000   0.5750000), wk =   0.0165289
        k(   23) = (   0.5000000   0.4333333   0.5666667), wk =   0.0165289
        k(   24) = (   0.5000000   0.4416667   0.5583333), wk =   0.0165289
        k(   25) = (   0.5000000   0.4500000   0.5500000), wk =   0.0165289
        k(   26) = (   0.5000000   0.4583333   0.5416667), wk =   0.0165289
        k(   27) = (   0.5000000   0.4666667   0.5333333), wk =   0.0165289
        k(   28) = (   0.5000000   0.4750000   0.5250000), wk =   0.0165289
        k(   29) = (   0.5000000   0.4833333   0.5166667), wk =   0.0165289
        k(   30) = (   0.5000000   0.4916667   0.5083333), wk =   0.0165289
        k(   31) = (   0.5000000   0.5000000   0.5000000), wk =   0.0165289
        k(   32) = (   0.4833333   0.4833333   0.4833333), wk =   0.0165289
        k(   33) = (   0.4666667   0.4666667   0.4666667), wk =   0.0165289
        k(   34) = (   0.4500000   0.4500000   0.4500000), wk =   0.0165289
        k(   35) = (   0.4333333   0.4333333   0.4333333), wk =   0.0165289
        k(   36) = (   0.4166667   0.4166667   0.4166667), wk =   0.0165289
        k(   37) = (   0.4000000   0.4000000   0.4000000), wk =   0.0165289
        k(   38) = (   0.3833333   0.3833333   0.3833333), wk =   0.0165289
        k(   39) = (   0.3666667   0.3666667   0.3666667), wk =   0.0165289
        k(   40) = (   0.3500000   0.3500000   0.3500000), wk =   0.0165289
        k(   41) = (   0.3333333   0.3333333   0.3333333), wk =   0.0165289
        k(   42) = (   0.3166667   0.3166667   0.3166667), wk =   0.0165289
        k(   43) = (   0.3000000   0.3000000   0.3000000), wk =   0.0165289
        k(   44) = (   0.2833333   0.2833333   0.2833333), wk =   0.0165289
        k(   45) = (   0.2666667   0.2666667   0.2666667), wk =   0.0165289
        k(   46) = (   0.2500000   0.2500000   0.2500000), wk =   0.0165289
        k(   47) = (   0.2333333   0.2333333   0.2333333), wk =   0.0165289
        k(   48) = (   0.2166667   0.2166667   0.2166667), wk =   0.0165289
        k(   49) = (   0.2000000   0.2000000   0.2000000), wk =   0.0165289
        k(   50) = (   0.1833333   0.1833333   0.1833333), wk =   0.0165289
        k(   51) = (   0.1666667   0.1666667   0.1666667), wk =   0.0165289
        k(   52) = (   0.1500000   0.1500000   0.1500000), wk =   0.0165289
        k(   53) = (   0.1333333   0.1333333   0.1333333), wk =   0.0165289
        k(   54) = (   0.1166667   0.1166667   0.1166667), wk =   0.0165289
        k(   55) = (   0.1000000   0.1000000   0.1000000), wk =   0.0165289
        k(   56) = (   0.0833333   0.0833333   0.0833333), wk =   0.0165289
        k(   57) = (   0.0666667   0.0666667   0.0666667), wk =   0.0165289
        k(   58) = (   0.0500000   0.0500000   0.0500000), wk =   0.0165289
        k(   59) = (   0.0333333   0.0333333   0.0333333), wk =   0.0165289
        k(   60) = (   0.0166667   0.0166667   0.0166667), wk =   0.0165289
        k(   61) = (   0.0000000   0.0000000   0.0000000), wk =   0.0165289
        k(   62) = (   0.0166667   0.0000000   0.0166667), wk =   0.0165289
        k(   63) = (   0.0333333   0.0000000   0.0333333), wk =   0.0165289
        k(   64) = (   0.0500000   0.0000000   0.0500000), wk =   0.0165289
        k(   65) = (   0.0666667   0.0000000   0.0666667), wk =   0.0165289
        k(   66) = (   0.0833333   0.0000000   0.0833333), wk =   0.0165289
        k(   67) = (   0.1000000   0.0000000   0.1000000), wk =   0.0165289
        k(   68) = (   0.1166667   0.0000000   0.1166667), wk =   0.0165289
        k(   69) = (   0.1333333   0.0000000   0.1333333), wk =   0.0165289
        k(   70) = (   0.1500000   0.0000000   0.1500000), wk =   0.0165289
        k(   71) = (   0.1666667   0.0000000   0.1666667), wk =   0.0165289
        k(   72) = (   0.1833333   0.0000000   0.1833333), wk =   0.0165289
        k(   73) = (   0.2000000   0.0000000   0.2000000), wk =   0.0165289
        k(   74) = (   0.2166667   0.0000000   0.2166667), wk =   0.0165289
        k(   75) = (   0.2333333   0.0000000   0.2333333), wk =   0.0165289
        k(   76) = (   0.2500000   0.0000000   0.2500000), wk =   0.0165289
        k(   77) = (   0.2666667   0.0000000   0.2666667), wk =   0.0165289
        k(   78) = (   0.2833333   0.0000000   0.2833333), wk =   0.0165289
        k(   79) = (   0.3000000   0.0000000   0.3000000), wk =   0.0165289
        k(   80) = (   0.3166667   0.0000000   0.3166667), wk =   0.0165289
        k(   81) = (   0.3333333   0.0000000   0.3333333), wk =   0.0165289
        k(   82) = (   0.3500000   0.0000000   0.3500000), wk =   0.0165289
        k(   83) = (   0.3666667   0.0000000   0.3666667), wk =   0.0165289
        k(   84) = (   0.3833333   0.0000000   0.3833333), wk =   0.0165289
        k(   85) = (   0.4000000   0.0000000   0.4000000), wk =   0.0165289
        k(   86) = (   0.4166667   0.0000000   0.4166667), wk =   0.0165289
        k(   87) = (   0.4333333   0.0000000   0.4333333), wk =   0.0165289
        k(   88) = (   0.4500000   0.0000000   0.4500000), wk =   0.0165289
        k(   89) = (   0.4666667   0.0000000   0.4666667), wk =   0.0165289
        k(   90) = (   0.4833333   0.0000000   0.4833333), wk =   0.0165289
        k(   91) = (   0.5000000   0.0000000   0.5000000), wk =   0.0165289
        k(   92) = (   0.5000000   0.0083333   0.5083333), wk =   0.0165289
        k(   93) = (   0.5000000   0.0166667   0.5166667), wk =   0.0165289
        k(   94) = (   0.5000000   0.0250000   0.5250000), wk =   0.0165289
        k(   95) = (   0.5000000   0.0333333   0.5333333), wk =   0.0165289
        k(   96) = (   0.5000000   0.0416667   0.5416667), wk =   0.0165289
        k(   97) = (   0.5000000   0.0500000   0.5500000), wk =   0.0165289
        k(   98) = (   0.5000000   0.0583333   0.5583333), wk =   0.0165289
        k(   99) = (   0.5000000   0.0666667   0.5666667), wk =   0.0165289
        k(  100) = (   0.5000000   0.0750000   0.5750000), wk =   0.0165289
        k(  101) = (   0.5000000   0.0833333   0.5833333), wk =   0.0165289
        k(  102) = (   0.5000000   0.0916667   0.5916667), wk =   0.0165289
        k(  103) = (   0.5000000   0.1000000   0.6000000), wk =   0.0165289
        k(  104) = (   0.5000000   0.1083333   0.6083333), wk =   0.0165289
        k(  105) = (   0.5000000   0.1166667   0.6166667), wk =   0.0165289
        k(  106) = (   0.5000000   0.1250000   0.6250000), wk =   0.0165289
        k(  107) = (   0.5000000   0.1333333   0.6333333), wk =   0.0165289
        k(  108) = (   0.5000000   0.1416667   0.6416667), wk =   0.0165289
        k(  109) = (   0.5000000   0.1500000   0.6500000), wk =   0.0165289
        k(  110) = (   0.5000000   0.1583333   0.6583333), wk =   0.0165289
        k(  111) = (   0.5000000   0.1666667   0.6666667), wk =   0.0165289
        k(  112) = (   0.5000000   0.1750000   0.6750000), wk =   0.0165289
        k(  113) = (   0.5000000   0.1833333   0.6833333), wk =   0.0165289
        k(  114) = (   0.5000000   0.1916667   0.6916667), wk =   0.0165289
        k(  115) = (   0.5000000   0.2000000   0.7000000), wk =   0.0165289
        k(  116) = (   0.5000000   0.2083333   0.7083333), wk =   0.0165289
        k(  117) = (   0.5000000   0.2166667   0.7166667), wk =   0.0165289
        k(  118) = (   0.5000000   0.2250000   0.7250000), wk =   0.0165289
        k(  119) = (   0.5000000   0.2333333   0.7333333), wk =   0.0165289
        k(  120) = (   0.5000000   0.2416667   0.7416667), wk =   0.0165289
        k(  121) = (   0.5000000   0.2500000   0.7500000), wk =   0.0165289

     Dense  grid:    11017 G-vectors     FFT dimensions: (  32,  32,  32)

     Dynamical RAM for                 wfc:       0.11 MB

     Dynamical RAM for     wfc (w. buffer):       0.11 MB

     Dynamical RAM for           str. fact:       0.17 MB

     Dynamical RAM for           local pot:       0.00 MB

     Dynamical RAM for          nlocal pot:       0.19 MB

     Dynamical RAM for                qrad:       0.82 MB

     Dynamical RAM for          rho,v,vnew:       0.63 MB

     Dynamical RAM for           G-vectors:       0.36 MB

     Dynamical RAM for          h,s,v(r/c):       0.02 MB

     Dynamical RAM for          <psi|beta>:       0.00 MB

     Dynamical RAM for                 psi:       0.21 MB

     Dynamical RAM for                hpsi:       0.21 MB

     Dynamical RAM for      wfcinit/wfcrot:       0.70 MB

     Estimated static dynamical RAM per process >       3.14 MB

     Estimated max dynamical RAM per process >       3.84 MB

     Estimated total dynamical RAM >       7.68 MB

     The potential is recalculated from file :
     ./LiF.save/charge-density

     Starting wfcs are   32 randomized atomic wfcs

     Band Structure Calculation
     Davidson diagonalization with overlap

     Computing kpt #:     1  of   121
     total cpu time spent up to now is        1.4 secs

     Computing kpt #:     2  of   121
     total cpu time spent up to now is        1.7 secs

     Computing kpt #:     3  of   121
     total cpu time spent up to now is        1.9 secs

     Computing kpt #:     4  of   121
     total cpu time spent up to now is        2.2 secs

     Computing kpt #:     5  of   121
     total cpu time spent up to now is        2.5 secs

     Computing kpt #:     6  of   121
     total cpu time spent up to now is        2.8 secs

     Computing kpt #:     7  of   121
     total cpu time spent up to now is        3.9 secs

     Computing kpt #:     8  of   121
     total cpu time spent up to now is        4.2 secs

     Computing kpt #:     9  of   121
     total cpu time spent up to now is        4.5 secs

     Computing kpt #:    10  of   121
     total cpu time spent up to now is        4.8 secs

     Computing kpt #:    11  of   121
     total cpu time spent up to now is        5.1 secs

     Computing kpt #:    12  of   121
     total cpu time spent up to now is        5.3 secs

     Computing kpt #:    13  of   121
     total cpu time spent up to now is        6.2 secs

     Computing kpt #:    14  of   121
     total cpu time spent up to now is        6.4 secs

     Computing kpt #:    15  of   121
     total cpu time spent up to now is        6.7 secs

     Computing kpt #:    16  of   121
     total cpu time spent up to now is        7.0 secs

     Computing kpt #:    17  of   121
     total cpu time spent up to now is        7.2 secs

     Computing kpt #:    18  of   121
     total cpu time spent up to now is        7.5 secs

     Computing kpt #:    19  of   121
     total cpu time spent up to now is        7.8 secs

     Computing kpt #:    20  of   121
     total cpu time spent up to now is        8.1 secs

     Computing kpt #:    21  of   121
     total cpu time spent up to now is        8.4 secs

     Computing kpt #:    22  of   121
     total cpu time spent up to now is        8.7 secs

     Computing kpt #:    23  of   121
     total cpu time spent up to now is        9.0 secs

     Computing kpt #:    24  of   121
     total cpu time spent up to now is        9.3 secs

     Computing kpt #:    25  of   121
     total cpu time spent up to now is        9.6 secs

     Computing kpt #:    26  of   121
     total cpu time spent up to now is       10.0 secs

     Computing kpt #:    27  of   121
     total cpu time spent up to now is       10.3 secs

     Computing kpt #:    28  of   121
     total cpu time spent up to now is       10.7 secs

     Computing kpt #:    29  of   121
     total cpu time spent up to now is       11.1 secs

     Computing kpt #:    30  of   121
     total cpu time spent up to now is       11.5 secs

     Computing kpt #:    31  of   121
     total cpu time spent up to now is       11.8 secs

     Computing kpt #:    32  of   121
     total cpu time spent up to now is       12.1 secs

     Computing kpt #:    33  of   121
     total cpu time spent up to now is       12.4 secs

     Computing kpt #:    34  of   121
     total cpu time spent up to now is       12.8 secs

     Computing kpt #:    35  of   121
     total cpu time spent up to now is       13.1 secs

     Computing kpt #:    36  of   121
     total cpu time spent up to now is       13.4 secs

     Computing kpt #:    37  of   121
     total cpu time spent up to now is       13.7 secs

     Computing kpt #:    38  of   121
     total cpu time spent up to now is       14.1 secs

     Computing kpt #:    39  of   121
     total cpu time spent up to now is       14.4 secs

     Computing kpt #:    40  of   121
     total cpu time spent up to now is       14.7 secs

     Computing kpt #:    41  of   121
     total cpu time spent up to now is       15.0 secs

     Computing kpt #:    42  of   121
     total cpu time spent up to now is       15.3 secs

     Computing kpt #:    43  of   121
     total cpu time spent up to now is       15.7 secs

     Computing kpt #:    44  of   121
     total cpu time spent up to now is       16.0 secs

     Computing kpt #:    45  of   121
     total cpu time spent up to now is       16.3 secs

     Computing kpt #:    46  of   121
     total cpu time spent up to now is       16.6 secs

     Computing kpt #:    47  of   121
     total cpu time spent up to now is       17.0 secs

     Computing kpt #:    48  of   121
     total cpu time spent up to now is       17.3 secs

     Computing kpt #:    49  of   121
     total cpu time spent up to now is       17.6 secs

     Computing kpt #:    50  of   121
     total cpu time spent up to now is       17.9 secs

     Computing kpt #:    51  of   121
     total cpu time spent up to now is       18.3 secs

     Computing kpt #:    52  of   121
     total cpu time spent up to now is       18.6 secs

     Computing kpt #:    53  of   121
     total cpu time spent up to now is       18.9 secs

     Computing kpt #:    54  of   121
     total cpu time spent up to now is       19.3 secs

     Computing kpt #:    55  of   121
     total cpu time spent up to now is       19.6 secs

     Computing kpt #:    56  of   121
     total cpu time spent up to now is       20.0 secs

     Computing kpt #:    57  of   121
     total cpu time spent up to now is       20.3 secs

     Computing kpt #:    58  of   121
     total cpu time spent up to now is       20.7 secs

     Computing kpt #:    59  of   121
     total cpu time spent up to now is       21.1 secs

     Computing kpt #:    60  of   121
     total cpu time spent up to now is       21.5 secs

     Computing kpt #:    61  of   121
     total cpu time spent up to now is       21.8 secs

     Computing kpt #:    62  of   121
     total cpu time spent up to now is       22.2 secs

     Computing kpt #:    63  of   121
     total cpu time spent up to now is       22.5 secs

     Computing kpt #:    64  of   121
     total cpu time spent up to now is       22.8 secs

     Computing kpt #:    65  of   121
     total cpu time spent up to now is       23.1 secs

     Computing kpt #:    66  of   121
     total cpu time spent up to now is       23.4 secs

     Computing kpt #:    67  of   121
     total cpu time spent up to now is       23.7 secs

     Computing kpt #:    68  of   121
     total cpu time spent up to now is       24.0 secs

     Computing kpt #:    69  of   121
     total cpu time spent up to now is       24.3 secs

     Computing kpt #:    70  of   121
     total cpu time spent up to now is       24.6 secs

     Computing kpt #:    71  of   121
     total cpu time spent up to now is       24.9 secs

     Computing kpt #:    72  of   121
     total cpu time spent up to now is       25.2 secs

     Computing kpt #:    73  of   121
     total cpu time spent up to now is       25.5 secs

     Computing kpt #:    74  of   121
     total cpu time spent up to now is       25.8 secs

     Computing kpt #:    75  of   121
     total cpu time spent up to now is       26.1 secs

     Computing kpt #:    76  of   121
     total cpu time spent up to now is       26.4 secs

     Computing kpt #:    77  of   121
     total cpu time spent up to now is       26.7 secs

     Computing kpt #:    78  of   121
     total cpu time spent up to now is       27.1 secs

     Computing kpt #:    79  of   121
     total cpu time spent up to now is       27.5 secs

     Computing kpt #:    80  of   121
     total cpu time spent up to now is       27.8 secs

     Computing kpt #:    81  of   121
     total cpu time spent up to now is       28.1 secs

     Computing kpt #:    82  of   121
     total cpu time spent up to now is       28.4 secs

     Computing kpt #:    83  of   121
     total cpu time spent up to now is       28.8 secs

     Computing kpt #:    84  of   121
     total cpu time spent up to now is       29.1 secs

     Computing kpt #:    85  of   121
     total cpu time spent up to now is       29.4 secs

     Computing kpt #:    86  of   121
     total cpu time spent up to now is       29.7 secs

     Computing kpt #:    87  of   121
     total cpu time spent up to now is       30.0 secs

     Computing kpt #:    88  of   121
     total cpu time spent up to now is       30.3 secs

     Computing kpt #:    89  of   121
     total cpu time spent up to now is       30.6 secs

     Computing kpt #:    90  of   121
     total cpu time spent up to now is       30.9 secs

     Computing kpt #:    91  of   121
     total cpu time spent up to now is       31.1 secs

     Computing kpt #:    92  of   121
     total cpu time spent up to now is       31.5 secs

     Computing kpt #:    93  of   121
     total cpu time spent up to now is       31.7 secs

     Computing kpt #:    94  of   121
     total cpu time spent up to now is       32.0 secs

     Computing kpt #:    95  of   121
     total cpu time spent up to now is       32.2 secs

     Computing kpt #:    96  of   121
     total cpu time spent up to now is       32.5 secs

     Computing kpt #:    97  of   121
     total cpu time spent up to now is       32.8 secs

     Computing kpt #:    98  of   121
     total cpu time spent up to now is       33.0 secs

     Computing kpt #:    99  of   121
     total cpu time spent up to now is       33.3 secs

     Computing kpt #:   100  of   121
     total cpu time spent up to now is       33.6 secs

     Computing kpt #:   101  of   121
     total cpu time spent up to now is       33.9 secs

     Computing kpt #:   102  of   121
     total cpu time spent up to now is       34.2 secs

     Computing kpt #:   103  of   121
     total cpu time spent up to now is       34.5 secs

     Computing kpt #:   104  of   121
     total cpu time spent up to now is       34.9 secs

     Computing kpt #:   105  of   121
     total cpu time spent up to now is       35.2 secs

     Computing kpt #:   106  of   121
     total cpu time spent up to now is       35.5 secs

     Computing kpt #:   107  of   121
     total cpu time spent up to now is       35.8 secs

     Computing kpt #:   108  of   121
     total cpu time spent up to now is       36.2 secs

     Computing kpt #:   109  of   121
     total cpu time spent up to now is       36.5 secs

     Computing kpt #:   110  of   121
     total cpu time spent up to now is       36.8 secs

     Computing kpt #:   111  of   121
     total cpu time spent up to now is       37.1 secs

     Computing kpt #:   112  of   121
     total cpu time spent up to now is       37.4 secs

     Computing kpt #:   113  of   121
     total cpu time spent up to now is       37.7 secs

     Computing kpt #:   114  of   121
     total cpu time spent up to now is       38.0 secs

     Computing kpt #:   115  of   121
     total cpu time spent up to now is       38.3 secs

     Computing kpt #:   116  of   121
     total cpu time spent up to now is       38.6 secs

     Computing kpt #:   117  of   121
     total cpu time spent up to now is       38.9 secs

     Computing kpt #:   118  of   121
     total cpu time spent up to now is       39.2 secs

     Computing kpt #:   119  of   121
     total cpu time spent up to now is       39.5 secs

     Computing kpt #:   120  of   121
     total cpu time spent up to now is       39.8 secs

     Computing kpt #:   121  of   121
     total cpu time spent up to now is       40.0 secs

     ethr =  1.25E-12,  avg # of iterations = 25.7

     total cpu time spent up to now is       40.0 secs

     End of band structure calculation

          k =-1.0000 0.5000 0.0000 (  1384 PWs)   bands (ev):

   -19.0920  -2.3337  -2.3337  -1.0840  14.0838  14.0838  16.3358  17.9143
    26.2490  26.2490

     occupation numbers 
     1.0000   1.0000   1.0000   1.0000   0.0000   0.0000   0.0000   0.0000
     0.0000   0.0000

          k =-0.9833 0.5000 0.0167 (  1384 PWs)   bands (ev):

   -19.0927  -2.3355  -2.3294  -1.0820  14.0585  14.0869  16.3581  17.9145
    26.2428  26.2543

     occupation numbers 
     1.0000   1.0000   1.0000   1.0000   0.0000   0.0000   0.0000   0.0000
     0.0000   0.0000

          k =-0.9667 0.5000 0.0333 (  1384 PWs)   bands (ev):

   -19.0946  -2.3408  -2.3166  -1.0758  13.9856  14.0964  16.4219  17.9149
    26.2248  26.2702

     occupation numbers 
     1.0000   1.0000   1.0000   1.0000   0.0000   0.0000   0.0000   0.0000
     0.0000   0.0000

          k =-0.9500 0.5000 0.0500 (  1386 PWs)   bands (ev):

   -19.0979  -2.3497  -2.2953  -1.0659  13.8730  14.1119  16.5191  17.9155
    26.1967  26.2966

     occupation numbers 
     1.0000   1.0000   1.0000   1.0000   0.0000   0.0000   0.0000   0.0000
     0.0000   0.0000

          k =-0.9333 0.5000 0.0667 (  1390 PWs)   bands (ev):

   -19.1025  -2.3617  -2.2661  -1.0523  13.7296  14.1337  16.6400  17.9163
    26.1615  26.3334

     occupation numbers 
     1.0000   1.0000   1.0000   1.0000   0.0000   0.0000   0.0000   0.0000
     0.0000   0.0000

          k =-0.9167 0.5000 0.0833 (  1394 PWs)   bands (ev):

   -19.1082  -2.3768  -2.2287  -1.0353  13.5641  14.1614  16.7755  17.9173
    26.1226  26.3803

     occupation numbers 
     1.0000   1.0000   1.0000   1.0000   0.0000   0.0000   0.0000   0.0000
     0.0000   0.0000

          k =-0.9000 0.5000 0.1000 (  1392 PWs)   bands (ev):

   -19.1151  -2.3939  -2.1832  -1.0152  13.3832  14.1954  16.9182  17.9185
    26.0842  26.4371

     occupation numbers 
     1.0000   1.0000   1.0000   1.0000   0.0000   0.0000   0.0000   0.0000
     0.0000   0.0000

          k =-0.8833 0.5000 0.1167 (  1392 PWs)   bands (ev):

   -19.1230  -2.4131  -2.1305  -0.9926  13.1914  14.2353  17.0623  17.9198
    26.0504  26.5035

     occupation numbers 
     1.0000   1.0000   1.0000   1.0000   0.0000   0.0000   0.0000   0.0000
     0.0000   0.0000

          k =-0.8667 0.5000 0.1333 (  1392 PWs)   bands (ev):

   -19.1318  -2.4340  -2.0707  -0.9678  12.9927  14.2808  17.2030  17.9210
    26.0255  26.5790

     occupation numbers 
     1.0000   1.0000   1.0000   1.0000   0.0000   0.0000   0.0000   0.0000
     0.0000   0.0000

          k =-0.8500 0.5000 0.1500 (  1392 PWs)   bands (ev):

   -19.1415  -2.4563  -2.0043  -0.9413  12.7898  14.3317  17.3368  17.9222
    26.0135  26.6632

     occupation numbers 
     1.0000   1.0000   1.0000   1.0000   0.0000   0.0000   0.0000   0.0000
     0.0000   0.0000

          k =-0.8333 0.5000 0.1667 (  1380 PWs)   bands (ev):

   -19.1520  -2.4789  -1.9314  -0.9127  12.5849  14.3883  17.4609  17.9235
    26.0180  26.7555

     occupation numbers 
     1.0000   1.0000   1.0000   1.0000   0.0000   0.0000   0.0000   0.0000
     0.0000   0.0000

          k =-0.8167 0.5000 0.1833 (  1388 PWs)   bands (ev):

   -19.1630  -2.5029  -1.8541  -0.8845  12.3791  14.4492  17.5727  17.9242
    26.0423  26.8552

     occupation numbers 
     1.0000   1.0000   1.0000   1.0000   0.0000   0.0000   0.0000   0.0000
     0.0000   0.0000

          k =-0.8000 0.5000 0.2000 (  1386 PWs)   bands (ev):

   -19.1746  -2.5270  -1.7711  -0.8552  12.1746  14.5148  17.6710  17.9246
    26.0888  26.9615

     occupation numbers 
     1.0000   1.0000   1.0000   1.0000   0.0000   0.0000   0.0000   0.0000
     0.0000   0.0000

          k =-0.7833 0.5000 0.2167 (  1386 PWs)   bands (ev):

   -19.1865  -2.5512  -1.6842  -0.8258  11.9722  14.5846  17.7547  17.9246
    26.1597  27.0735

     occupation numbers 
     1.0000   1.0000   1.0000   1.0000   0.0000   0.0000   0.0000   0.0000
     0.0000   0.0000

          k =-0.7667 0.5000 0.2333 (  1380 PWs)   bands (ev):

   -19.1986  -2.5750  -1.5933  -0.7965  11.7733  14.6581  17.8234  17.9240
    26.2562  27.1901

     occupation numbers 
     1.0000   1.0000   1.0000   1.0000   0.0000   0.0000   0.0000   0.0000
     0.0000   0.0000

          k =-0.7500 0.5000 0.2500 (  1382 PWs)   bands (ev):

   -19.2108  -2.5985  -1.5009  -0.7675  11.5783  14.7345  17.8772  17.9228
    26.3787  27.3101

     occupation numbers 
     1.0000   1.0000   1.0000   1.0000   0.0000   0.0000   0.0000   0.0000
     0.0000   0.0000

          k =-0.7333 0.5000 0.2667 (  1382 PWs)   bands (ev):

   -19.2230  -2.6213  -1.4065  -0.7393  11.3888  14.8135  17.9169  17.9208
    26.5273  27.4319

     occupation numbers 
     1.0000   1.0000   1.0000   1.0000   0.0000   0.0000   0.0000   0.0000
     0.0000   0.0000

          k =-0.7167 0.5000 0.2833 (  1388 PWs)   bands (ev):

   -19.2350  -2.6433  -1.3122  -0.7122  11.2054  14.8941  17.9179  17.9436
    26.7010  27.5539

     occupation numbers 
     1.0000   1.0000   1.0000   1.0000   0.0000   0.0000   0.0000   0.0000
     0.0000   0.0000

          k =-0.7000 0.5000 0.3000 (  1390 PWs)   bands (ev):

   -19.2467  -2.6645  -1.2178  -0.6859  11.0295  14.9756  17.9142  17.9590
    26.8987  27.6739

     occupation numbers 
     1.0000   1.0000   1.0000   1.0000   0.0000   0.0000   0.0000   0.0000
     0.0000   0.0000

          k =-0.6833 0.5000 0.3167 (  1390 PWs)   bands (ev):

   -19.2580  -2.6842  -1.1248  -0.6610  10.8620  15.0574  17.9097  17.9645
    27.1185  27.7895

     occupation numbers 
     1.0000   1.0000   1.0000   1.0000   0.0000   0.0000   0.0000   0.0000
     0.0000   0.0000

          k =-0.6667 0.5000 0.3333 (  1396 PWs)   bands (ev):

   -19.2687  -2.7031  -1.0347  -0.6379  10.7038  15.1378  17.9042  17.9622
    27.3583  27.8978

     occupation numbers 
     1.0000   1.0000   1.0000   1.0000   0.0000   0.0000   0.0000   0.0000
     0.0000   0.0000

          k =-0.6500 0.5000 0.3500 (  1388 PWs)   bands (ev):

   -19.2788  -2.7197  -0.9475  -0.6160  10.5562  15.2169  17.8981  17.9538
    27.6156  27.9955

     occupation numbers 
     1.0000   1.0000   1.0000   1.0000   0.0000   0.0000   0.0000   0.0000
     0.0000   0.0000

          k =-0.6333 0.5000 0.3667 (  1390 PWs)   bands (ev):

   -19.2881  -2.7352  -0.8661  -0.5964  10.4202  15.2923  17.8914  17.9412
    27.8873  28.0790

     occupation numbers 
     1.0000   1.0000   1.0000   1.0000   0.0000   0.0000   0.0000   0.0000
     0.0000   0.0000

          k =-0.6167 0.5000 0.3833 (  1386 PWs)   bands (ev):

   -19.2965  -2.7489  -0.7905  -0.5784  10.2970  15.3636  17.8842  17.9259
    28.1447  28.1698

     occupation numbers 
     1.0000   1.0000   1.0000   1.0000   0.0000   0.0000   0.0000   0.0000
     0.0000   0.0000

          k =-0.6000 0.5000 0.4000 (  1386 PWs)   bands (ev):

   -19.3040  -2.7611  -0.7223  -0.5627  10.1875  15.4288  17.8769  17.9096
    28.1902  28.4588

     occupation numbers 
     1.0000   1.0000   1.0000   1.0000   0.0000   0.0000   0.0000   0.0000
     0.0000   0.0000

          k =-0.5833 0.5000 0.4167 (  1382 PWs)   bands (ev):

   -19.3104  -2.7715  -0.6616  -0.5494  10.0929  15.4870  17.8697  17.8935
    28.2151  28.7485

     occupation numbers 
     1.0000   1.0000   1.0000   1.0000   0.0000   0.0000   0.0000   0.0000
     0.0000   0.0000

          k =-0.5667 0.5000 0.4333 (  1384 PWs)   bands (ev):

   -19.3158  -2.7802  -0.6113  -0.5384  10.0140  15.5366  17.8630  17.8788
    28.2222  29.0302

     occupation numbers 
     1.0000   1.0000   1.0000   1.0000   0.0000   0.0000   0.0000   0.0000
     0.0000   0.0000

          k =-0.5500 0.5000 0.4500 (  1386 PWs)   bands (ev):

   -19.3200  -2.7867  -0.5717  -0.5297   9.9516  15.5769  17.8574  17.8664
    28.2172  29.2913

     occupation numbers 
     1.0000   1.0000   1.0000   1.0000   0.0000   0.0000   0.0000   0.0000
     0.0000   0.0000

          k =-0.5333 0.5000 0.4667 (  1382 PWs)   bands (ev):

   -19.3231  -2.7912  -0.5423  -0.5234   9.9066  15.6068  17.8530  17.8570
    28.2070  29.5130

     occupation numbers 
     1.0000   1.0000   1.0000   1.0000   0.0000   0.0000   0.0000   0.0000
     0.0000   0.0000

          k =-0.5167 0.5000 0.4833 (  1380 PWs)   bands (ev):

   -19.3249  -2.7940  -0.5244  -0.5196   9.8794  15.6250  17.8502  17.8512
    28.1981  29.6672

     occupation numbers 
     1.0000   1.0000   1.0000   1.0000   0.0000   0.0000   0.0000   0.0000
     0.0000   0.0000

          k =-0.5000 0.5000 0.5000 (  1380 PWs)   bands (ev):

   -19.3255  -2.7950  -0.5184  -0.5184   9.8703  15.6310  17.8493  17.8493
    28.1946  29.7234

     occupation numbers 
     1.0000   1.0000   1.0000   1.0000   0.0000   0.0000   0.0000   0.0000
     0.0000   0.0000

          k =-0.4833 0.4833 0.4833 (  1386 PWs)   bands (ev):

   -19.3270  -2.7898  -0.5179  -0.5179   9.8703  15.6320  17.8568  17.8568
    28.1691  29.6976

     occupation numbers 
     1.0000   1.0000   1.0000   1.0000   0.0000   0.0000   0.0000   0.0000
     0.0000   0.0000

          k =-0.4667 0.4667 0.4667 (  1392 PWs)   bands (ev):

   -19.3314  -2.7728  -0.5165  -0.5165   9.8704  15.6368  17.8792  17.8792
    28.0953  29.6213

     occupation numbers 
     1.0000   1.0000   1.0000   1.0000   0.0000   0.0000   0.0000   0.0000
     0.0000   0.0000

          k =-0.4500 0.4500 0.4500 (  1392 PWs)   bands (ev):

   -19.3387  -2.7439  -0.5137  -0.5137   9.8699  15.6465  17.9166  17.9166
    27.9797  29.4983

     occupation numbers 
     1.0000   1.0000   1.0000   1.0000   0.0000   0.0000   0.0000   0.0000
     0.0000   0.0000

          k =-0.4333 0.4333 0.4333 (  1383 PWs)   bands (ev):

   -19.3486  -2.7031  -0.5093  -0.5093   9.8680  15.6625  17.9689  17.9689
    27.8308  29.3340

     occupation numbers 
     1.0000   1.0000   1.0000   1.0000   0.0000   0.0000   0.0000   0.0000
     0.0000   0.0000

          k =-0.4167 0.4167 0.4167 (  1392 PWs)   bands (ev):

   -19.3613  -2.6528  -0.5046  -0.5046   9.8636  15.6852  18.0358  18.0358
    27.6570  29.1341

     occupation numbers 
     1.0000   1.0000   1.0000   1.0000   0.0000   0.0000   0.0000   0.0000
     0.0000   0.0000

          k =-0.4000 0.4000 0.4000 (  1389 PWs)   bands (ev):

   -19.3763  -2.5906  -0.4987  -0.4987   9.8553  15.7190  18.1173  18.1173
    27.4657  28.9055

     occupation numbers 
     1.0000   1.0000   1.0000   1.0000   0.0000   0.0000   0.0000   0.0000
     0.0000   0.0000

          k =-0.3833 0.3833 0.3833 (  1389 PWs)   bands (ev):

   -19.3937  -2.5187  -0.4919  -0.4919   9.8418  15.7653  18.2132  18.2132
    27.2626  28.6543

     occupation numbers 
     1.0000   1.0000   1.0000   1.0000   0.0000   0.0000   0.0000   0.0000
     0.0000   0.0000

          k =-0.3667 0.3667 0.3667 (  1380 PWs)   bands (ev):

   -19.4130  -2.4368  -0.4836  -0.4836   9.8213  15.8274  18.3232  18.3232
    27.0522  28.3865

     occupation numbers 
     1.0000   1.0000   1.0000   1.0000   0.0000   0.0000   0.0000   0.0000
     0.0000   0.0000

          k =-0.3500 0.3500 0.3500 (  1380 PWs)   bands (ev):

   -19.4342  -2.3465  -0.4751  -0.4751   9.7926  15.9075  18.4470  18.4470
    26.8379  28.1069

     occupation numbers 
     1.0000   1.0000   1.0000   1.0000   0.0000   0.0000   0.0000   0.0000
     0.0000   0.0000

          k =-0.3333 0.3333 0.3333 (  1380 PWs)   bands (ev):

   -19.4569  -2.2474  -0.4662  -0.4662   9.7543  16.0088  18.5842  18.5842
    26.6224  27.8200

     occupation numbers 
     1.0000   1.0000   1.0000   1.0000   0.0000   0.0000   0.0000   0.0000
     0.0000   0.0000

          k =-0.3167 0.3167 0.3167 (  1387 PWs)   bands (ev):

   -19.4809  -2.1412  -0.4571  -0.4571   9.7055  16.1333  18.7346  18.7346
    26.4078  27.5294

     occupation numbers 
     1.0000   1.0000   1.0000   1.0000   0.0000   0.0000   0.0000   0.0000
     0.0000   0.0000

          k =-0.3000 0.3000 0.3000 (  1381 PWs)   bands (ev):

   -19.5059  -2.0286  -0.4462  -0.4462   9.6458  16.2830  18.8976  18.8976
    26.1956  27.2386

     occupation numbers 
     1.0000   1.0000   1.0000   1.0000   0.0000   0.0000   0.0000   0.0000
     0.0000   0.0000

          k =-0.2833 0.2833 0.2833 (  1378 PWs)   bands (ev):

   -19.5315  -1.9101  -0.4353  -0.4353   9.5752  16.4598  19.0727  19.0727
    25.9873  26.9499

     occupation numbers 
     1.0000   1.0000   1.0000   1.0000   0.0000   0.0000   0.0000   0.0000
     0.0000   0.0000

          k =-0.2667 0.2667 0.2667 (  1378 PWs)   bands (ev):

   -19.5575  -1.7873  -0.4242  -0.4242   9.4939  16.6644  19.2593  19.2593
    25.7841  26.6655

     occupation numbers 
     1.0000   1.0000   1.0000   1.0000   0.0000   0.0000   0.0000   0.0000
     0.0000   0.0000

          k =-0.2500 0.2500 0.2500 (  1378 PWs)   bands (ev):

   -19.5836  -1.6610  -0.4128  -0.4128   9.4029  16.8976  19.4568  19.4568
    25.5870  26.3871

     occupation numbers 
     1.0000   1.0000   1.0000   1.0000   0.0000   0.0000   0.0000   0.0000
     0.0000   0.0000

          k =-0.2333 0.2333 0.2333 (  1375 PWs)   bands (ev):

   -19.6096  -1.5320  -0.4013  -0.4013   9.3036  17.1596  19.6645  19.6645
    25.3970  26.1161

     occupation numbers 
     1.0000   1.0000   1.0000   1.0000   0.0000   0.0000   0.0000   0.0000
     0.0000   0.0000

          k =-0.2167 0.2167 0.2167 (  1381 PWs)   bands (ev):

   -19.6350  -1.4026  -0.3902  -0.3902   9.1973  17.4500  19.8813  19.8813
    25.2148  25.8533

     occupation numbers 
     1.0000   1.0000   1.0000   1.0000   0.0000   0.0000   0.0000   0.0000
     0.0000   0.0000

          k =-0.2000 0.2000 0.2000 (  1387 PWs)   bands (ev):

   -19.6598  -1.2734  -0.3794  -0.3794   9.0862  17.7684  20.1063  20.1063
    25.0412  25.5996

     occupation numbers 
     1.0000   1.0000   1.0000   1.0000   0.0000   0.0000   0.0000   0.0000
     0.0000   0.0000

          k =-0.1833 0.1833 0.1833 (  1387 PWs)   bands (ev):

   -19.6835  -1.1457  -0.3685  -0.3685   8.9722  18.1141  20.3385  20.3385
    24.8766  25.3552

     occupation numbers 
     1.0000   1.0000   1.0000   1.0000   0.0000   0.0000   0.0000   0.0000
     0.0000   0.0000

          k =-0.1667 0.1667 0.1667 (  1387 PWs)   bands (ev):

   -19.7060  -1.0210  -0.3580  -0.3580   8.8575  18.4860  20.5766  20.5766
    24.7215  25.1202

     occupation numbers 
     1.0000   1.0000   1.0000   1.0000   0.0000   0.0000   0.0000   0.0000
     0.0000   0.0000

          k =-0.1500 0.1500 0.1500 (  1387 PWs)   bands (ev):

   -19.7271  -0.9018  -0.3477  -0.3477   8.7443  18.8824  20.8191  20.8191
    24.5758  24.8944

     occupation numbers 
     1.0000   1.0000   1.0000   1.0000   0.0000   0.0000   0.0000   0.0000
     0.0000   0.0000

          k =-0.1333 0.1333 0.1333 (  1393 PWs)   bands (ev):

   -19.7465  -0.7890  -0.3387  -0.3387   8.6350  19.3020  21.0645  21.0645
    24.4394  24.6771

     occupation numbers 
     1.0000   1.0000   1.0000   1.0000   0.0000   0.0000   0.0000   0.0000
     0.0000   0.0000

          k =-0.1167 0.1167 0.1167 (  1393 PWs)   bands (ev):

   -19.7641  -0.6844  -0.3299  -0.3299   8.5318  19.7425  21.3109  21.3109
    24.3111  24.4675

     occupation numbers 
     1.0000   1.0000   1.0000   1.0000   0.0000   0.0000   0.0000   0.0000
     0.0000   0.0000

          k =-0.1000 0.1000 0.1000 (  1390 PWs)   bands (ev):

   -19.7797  -0.5886  -0.3222  -0.3222   8.4371  20.2012  21.5564  21.5564
    24.1891  24.2646

     occupation numbers 
     1.0000   1.0000   1.0000   1.0000   0.0000   0.0000   0.0000   0.0000
     0.0000   0.0000

          k =-0.0833 0.0833 0.0833 (  1390 PWs)   bands (ev):

   -19.7931  -0.5045  -0.3157  -0.3157   8.3528  20.6739  21.7986  21.7986
    24.0673  24.0673

     occupation numbers 
     1.0000   1.0000   1.0000   1.0000   0.0000   0.0000   0.0000   0.0000
     0.0000   0.0000

          k =-0.0667 0.0667 0.0667 (  1387 PWs)   bands (ev):

   -19.8042  -0.4327  -0.3102  -0.3102   8.2809  21.1549  22.0347  22.0347
    23.8746  23.8746

     occupation numbers 
     1.0000   1.0000   1.0000   1.0000   0.0000   0.0000   0.0000   0.0000
     0.0000   0.0000

          k =-0.0500 0.0500 0.0500 (  1387 PWs)   bands (ev):

   -19.8130  -0.3756  -0.3058  -0.3058   8.2230  21.6346  22.2609  22.2609
    23.6870  23.6870

     occupation numbers 
     1.0000   1.0000   1.0000   1.0000   0.0000   0.0000   0.0000   0.0000
     0.0000   0.0000

          k =-0.0333 0.0333 0.0333 (  1387 PWs)   bands (ev):

   -19.8193  -0.3340  -0.3026  -0.3026   8.1806  22.0965  22.4696  22.4696
    23.5086  23.5086

     occupation numbers 
     1.0000   1.0000   1.0000   1.0000   0.0000   0.0000   0.0000   0.0000
     0.0000   0.0000

          k =-0.0167 0.0167 0.0167 (  1393 PWs)   bands (ev):

   -19.8232  -0.3086  -0.3012  -0.3012   8.1547  22.5041  22.6411  22.6411
    23.3563  23.3563

     occupation numbers 
     1.0000   1.0000   1.0000   1.0000   0.0000   0.0000   0.0000   0.0000
     0.0000   0.0000

          k = 0.0000 0.0000 0.0000 (  1411 PWs)   bands (ev):

   -19.8245  -0.3016  -0.3016  -0.3016   8.1460  22.7178  22.7178  22.7178
    23.2862  23.2862

     occupation numbers 
     1.0000   1.0000   1.0000   1.0000   0.0000   0.0000   0.0000   0.0000
     0.0000   0.0000

          k =-0.0333 0.0000 0.0000 (  1395 PWs)   bands (ev):

   -19.8228  -0.3077  -0.3035  -0.3035   8.1576  22.5212  22.5212  22.6706
    23.1741  23.5075

     occupation numbers 
     1.0000   1.0000   1.0000   1.0000   0.0000   0.0000   0.0000   0.0000
     0.0000   0.0000

          k =-0.0667 0.0000 0.0000 (  1387 PWs)   bands (ev):

   -19.8176  -0.3302  -0.3111  -0.3111   8.1924  22.1965  22.1965  22.5337
    22.8851  23.9060

     occupation numbers 
     1.0000   1.0000   1.0000   1.0000   0.0000   0.0000   0.0000   0.0000
     0.0000   0.0000

          k =-0.1000 0.0000 0.0000 (  1387 PWs)   bands (ev):

   -19.8092  -0.3674  -0.3248  -0.3248   8.2501  21.8701  21.8701  22.3208
    22.4995  24.3549

     occupation numbers 
     1.0000   1.0000   1.0000   1.0000   0.0000   0.0000   0.0000   0.0000
     0.0000   0.0000

          k =-0.1333 0.0000 0.0000 (  1391 PWs)   bands (ev):

   -19.7974  -0.4199  -0.3437  -0.3437   8.3302  21.5600  21.5600  22.0494
    22.0712  24.8361

     occupation numbers 
     1.0000   1.0000   1.0000   1.0000   0.0000   0.0000   0.0000   0.0000
     0.0000   0.0000

          k =-0.1667 0.0000 0.0000 (  1391 PWs)   bands (ev):

   -19.7823  -0.4855  -0.3677  -0.3677   8.4323  21.2703  21.2703  21.6283
    21.7376  25.3449

     occupation numbers 
     1.0000   1.0000   1.0000   1.0000   0.0000   0.0000   0.0000   0.0000
     0.0000   0.0000

          k =-0.2000 0.0000 0.0000 (  1399 PWs)   bands (ev):

   -19.7641  -0.5651  -0.3968  -0.3968   8.5555  21.0020  21.0020  21.1849
    21.4006  25.8796

     occupation numbers 
     1.0000   1.0000   1.0000   1.0000   0.0000   0.0000   0.0000   0.0000
     0.0000   0.0000

          k =-0.2333 0.0000 0.0000 (  1395 PWs)   bands (ev):

   -19.7428  -0.6562  -0.4297  -0.4297   8.6992  20.7488  20.7553  20.7553
    21.0510  26.4394

     occupation numbers 
     1.0000   1.0000   1.0000   1.0000   0.0000   0.0000   0.0000   0.0000
     0.0000   0.0000

          k =-0.2667 0.0000 0.0000 (  1387 PWs)   bands (ev):

   -19.7186  -0.7590  -0.4664  -0.4664   8.8623  20.3242  20.5300  20.5300
    20.6984  27.0236

     occupation numbers 
     1.0000   1.0000   1.0000   1.0000   0.0000   0.0000   0.0000   0.0000
     0.0000   0.0000

          k =-0.3000 0.0000 0.0000 (  1383 PWs)   bands (ev):

   -19.6916  -0.8726  -0.5071  -0.5071   9.0438  19.9137  20.3254  20.3254
    20.3499  27.6316

     occupation numbers 
     1.0000   1.0000   1.0000   1.0000   0.0000   0.0000   0.0000   0.0000
     0.0000   0.0000

          k =-0.3333 0.0000 0.0000 (  1383 PWs)   bands (ev):

   -19.6620  -0.9969  -0.5508  -0.5508   9.2424  19.5191  20.0106  20.1409
    20.1409  28.2630

     occupation numbers 
     1.0000   1.0000   1.0000   1.0000   0.0000   0.0000   0.0000   0.0000
     0.0000   0.0000

          k =-0.3667 0.0000 0.0000 (  1375 PWs)   bands (ev):

   -19.6300  -1.1294  -0.5966  -0.5966   9.4570  19.1414  19.6841  19.9758
    19.9758  28.9171

     occupation numbers 
     1.0000   1.0000   1.0000   1.0000   0.0000   0.0000   0.0000   0.0000
     0.0000   0.0000

          k =-0.4000 0.0000 0.0000 (  1375 PWs)   bands (ev):

   -19.5960  -1.2697  -0.6448  -0.6448   9.6860  18.7814  19.3728  19.8292
    19.8292  29.5935

     occupation numbers 
     1.0000   1.0000   1.0000   1.0000   0.0000   0.0000   0.0000   0.0000
     0.0000   0.0000

          k =-0.4333 0.0000 0.0000 (  1375 PWs)   bands (ev):

   -19.5601  -1.4158  -0.6946  -0.6946   9.9282  18.4395  19.0779  19.6999
    19.6999  30.2914

     occupation numbers 
     1.0000   1.0000   1.0000   1.0000   0.0000   0.0000   0.0000   0.0000
     0.0000   0.0000

          k =-0.4667 0.0000 0.0000 (  1375 PWs)   bands (ev):

   -19.5227  -1.5662  -0.7452  -0.7452  10.1820  18.1163  18.8002  19.5871
    19.5871  31.0101

     occupation numbers 
     1.0000   1.0000   1.0000   1.0000   0.0000   0.0000   0.0000   0.0000
     0.0000   0.0000

          k =-0.5000 0.0000 0.0000 (  1387 PWs)   bands (ev):

   -19.4842  -1.7209  -0.7965  -0.7965  10.4453  17.8119  18.5394  19.4896
    19.4896  31.7488

     occupation numbers 
     1.0000   1.0000   1.0000   1.0000   0.0000   0.0000   0.0000   0.0000
     0.0000   0.0000

          k =-0.5333 0.0000 0.0000 (  1367 PWs)   bands (ev):

   -19.4449  -1.8750  -0.8459  -0.8459  10.7175  17.5266  18.2951  19.4067
    19.4067  32.5066

     occupation numbers 
     1.0000   1.0000   1.0000   1.0000   0.0000   0.0000   0.0000   0.0000
     0.0000   0.0000

          k =-0.5667 0.0000 0.0000 (  1367 PWs)   bands (ev):

   -19.4052  -2.0289  -0.8960  -0.8960  10.9956  17.2606  18.0662  19.3364
    19.3364  33.0284

     occupation numbers 
     1.0000   1.0000   1.0000   1.0000   0.0000   0.0000   0.0000   0.0000
     0.0000   0.0000

          k =-0.6000 0.0000 0.0000 (  1363 PWs)   bands (ev):

   -19.3657  -2.1801  -0.9447  -0.9447  11.2784  17.0139  17.8516  19.2778
    19.2778  32.8533

     occupation numbers 
     1.0000   1.0000   1.0000   1.0000   0.0000   0.0000   0.0000   0.0000
     0.0000   0.0000

          k =-0.6333 0.0000 0.0000 (  1379 PWs)   bands (ev):

   -19.3268  -2.3293  -0.9922  -0.9922  11.5624  16.7867  17.6496  19.2296
    19.2296  32.6658

     occupation numbers 
     1.0000   1.0000   1.0000   1.0000   0.0000   0.0000   0.0000   0.0000
     0.0000   0.0000

          k =-0.6667 0.0000 0.0000 (  1379 PWs)   bands (ev):

   -19.2889  -2.4712  -1.0368  -1.0368  11.8468  16.5791  17.4590  19.1909
    19.1909  32.4755

     occupation numbers 
     1.0000   1.0000   1.0000   1.0000   0.0000   0.0000   0.0000   0.0000
     0.0000   0.0000

          k =-0.7000 0.0000 0.0000 (  1379 PWs)   bands (ev):

   -19.2526  -2.6056  -1.0786  -1.0786  12.1283  16.3911  17.2783  19.1603
    19.1603  32.2880

     occupation numbers 
     1.0000   1.0000   1.0000   1.0000   0.0000   0.0000   0.0000   0.0000
     0.0000   0.0000

          k =-0.7333 0.0000 0.0000 (  1371 PWs)   bands (ev):

   -19.2184  -2.7301  -1.1171  -1.1171  12.4048  16.2228  17.1064  19.1367
    19.1367  32.1089

     occupation numbers 
     1.0000   1.0000   1.0000   1.0000   0.0000   0.0000   0.0000   0.0000
     0.0000   0.0000

          k =-0.7667 0.0000 0.0000 (  1371 PWs)   bands (ev):

   -19.1868  -2.8448  -1.1521  -1.1521  12.6717  16.0742  16.9426  19.1188
    19.1188  31.9421

     occupation numbers 
     1.0000   1.0000   1.0000   1.0000   0.0000   0.0000   0.0000   0.0000
     0.0000   0.0000

          k =-0.8000 0.0000 0.0000 (  1367 PWs)   bands (ev):

   -19.1583  -2.9472  -1.1830  -1.1830  12.9258  15.9453  16.7870  19.1058
    19.1058  31.7914

     occupation numbers 
     1.0000   1.0000   1.0000   1.0000   0.0000   0.0000   0.0000   0.0000
     0.0000   0.0000

          k =-0.8333 0.0000 0.0000 (  1379 PWs)   bands (ev):

   -19.1333  -3.0370  -1.2104  -1.2104  13.1613  15.8363  16.6408  19.0962
    19.0962  31.6596

     occupation numbers 
     1.0000   1.0000   1.0000   1.0000   0.0000   0.0000   0.0000   0.0000
     0.0000   0.0000

          k =-0.8667 0.0000 0.0000 (  1379 PWs)   bands (ev):

   -19.1122  -3.1115  -1.2328  -1.2328  13.3735  15.7470  16.5069  19.0897
    19.0897  31.5492

     occupation numbers 
     1.0000   1.0000   1.0000   1.0000   0.0000   0.0000   0.0000   0.0000
     0.0000   0.0000

          k =-0.9000 0.0000 0.0000 (  1375 PWs)   bands (ev):

   -19.0954  -3.1704  -1.2501  -1.2501  13.5545  15.6776  16.3902  19.0857
    19.0857  31.4617

     occupation numbers 
     1.0000   1.0000   1.0000   1.0000   0.0000   0.0000   0.0000   0.0000
     0.0000   0.0000

          k =-0.9333 0.0000 0.0000 (  1375 PWs)   bands (ev):

   -19.0833  -3.2132  -1.2628  -1.2628  13.6947  15.6280  16.2974  19.0831
    19.0831  31.3983

     occupation numbers 
     1.0000   1.0000   1.0000   1.0000   0.0000   0.0000   0.0000   0.0000
     0.0000   0.0000

          k =-0.9667 0.0000 0.0000 (  1362 PWs)   bands (ev):

   -19.0758  -3.2381  -1.2701  -1.2701  13.7855  15.5982  16.2368  19.0819
    19.0819  31.3600

     occupation numbers 
     1.0000   1.0000   1.0000   1.0000   0.0000   0.0000   0.0000   0.0000
     0.0000   0.0000

          k =-1.0000 0.0000 0.0000 (  1362 PWs)   bands (ev):

   -19.0733  -3.2467  -1.2726  -1.2726  13.8165  15.5883  16.2156  19.0815
    19.0815  31.3472

     occupation numbers 
     1.0000   1.0000   1.0000   1.0000   0.0000   0.0000   0.0000   0.0000
     0.0000   0.0000

          k =-1.0000 0.0167 0.0000 (  1362 PWs)   bands (ev):

   -19.0734  -3.2456  -1.2742  -1.2721  13.8166  15.5820  16.2158  19.0781
    19.0946  31.3509

     occupation numbers 
     1.0000   1.0000   1.0000   1.0000   0.0000   0.0000   0.0000   0.0000
     0.0000   0.0000

          k =-1.0000 0.0333 0.0000 (  1362 PWs)   bands (ev):

   -19.0735  -3.2420  -1.2789  -1.2706  13.8170  15.5633  16.2165  19.0681
    19.1336  31.3622

     occupation numbers 
     1.0000   1.0000   1.0000   1.0000   0.0000   0.0000   0.0000   0.0000
     0.0000   0.0000

          k =-1.0000 0.0500 0.0000 (  1362 PWs)   bands (ev):

   -19.0738  -3.2362  -1.2868  -1.2680  13.8176  15.5331  16.2176  19.0515
    19.1977  31.3807

     occupation numbers 
     1.0000   1.0000   1.0000   1.0000   0.0000   0.0000   0.0000   0.0000
     0.0000   0.0000

          k =-1.0000 0.0667 0.0000 (  1370 PWs)   bands (ev):

   -19.0742  -3.2285  -1.2980  -1.2649  13.8179  15.4927  16.2192  19.0285
    19.2855  31.4062

     occupation numbers 
     1.0000   1.0000   1.0000   1.0000   0.0000   0.0000   0.0000   0.0000
     0.0000   0.0000

          k =-1.0000 0.0833 0.0000 (  1372 PWs)   bands (ev):

   -19.0746  -3.2180  -1.3120  -1.2607  13.8191  15.4436  16.2212  18.9994
    19.3955  31.4383

     occupation numbers 
     1.0000   1.0000   1.0000   1.0000   0.0000   0.0000   0.0000   0.0000
     0.0000   0.0000

          k =-1.0000 0.1000 0.0000 (  1376 PWs)   bands (ev):

   -19.0751  -3.2053  -1.3291  -1.2558  13.8205  15.3875  16.2236  18.9647
    19.5259  31.4766

     occupation numbers 
     1.0000   1.0000   1.0000   1.0000   0.0000   0.0000   0.0000   0.0000
     0.0000   0.0000

          k =-1.0000 0.1167 0.0000 (  1376 PWs)   bands (ev):

   -19.0758  -3.1903  -1.3490  -1.2496  13.8223  15.3259  16.2265  18.9249
    19.6751  31.5203

     occupation numbers 
     1.0000   1.0000   1.0000   1.0000   0.0000   0.0000   0.0000   0.0000
     0.0000   0.0000

          k =-1.0000 0.1333 0.0000 (  1376 PWs)   bands (ev):

   -19.0765  -3.1731  -1.3718  -1.2424  13.8243  15.2603  16.2298  18.8806
    19.8414  31.5690

     occupation numbers 
     1.0000   1.0000   1.0000   1.0000   0.0000   0.0000   0.0000   0.0000
     0.0000   0.0000

          k =-1.0000 0.1500 0.0000 (  1376 PWs)   bands (ev):

   -19.0772  -3.1536  -1.3973  -1.2348  13.8269  15.1921  16.2335  18.8320
    20.0235  31.6219

     occupation numbers 
     1.0000   1.0000   1.0000   1.0000   0.0000   0.0000   0.0000   0.0000
     0.0000   0.0000

          k =-1.0000 0.1667 0.0000 (  1372 PWs)   bands (ev):

   -19.0780  -3.1319  -1.4254  -1.2259  13.8299  15.1224  16.2376  18.7800
    20.2202  31.6783

     occupation numbers 
     1.0000   1.0000   1.0000   1.0000   0.0000   0.0000   0.0000   0.0000
     0.0000   0.0000

          k =-1.0000 0.1833 0.0000 (  1376 PWs)   bands (ev):

   -19.0789  -3.1081  -1.4565  -1.2173  13.8333  15.0520  16.2421  18.7249
    20.4301  31.7372

     occupation numbers 
     1.0000   1.0000   1.0000   1.0000   0.0000   0.0000   0.0000   0.0000
     0.0000   0.0000

          k =-1.0000 0.2000 0.0000 (  1380 PWs)   bands (ev):

   -19.0798  -3.0825  -1.4898  -1.2081  13.8370  14.9818  16.2469  18.6674
    20.6525  31.7981

     occupation numbers 
     1.0000   1.0000   1.0000   1.0000   0.0000   0.0000   0.0000   0.0000
     0.0000   0.0000

          k =-1.0000 0.2167 0.0000 (  1376 PWs)   bands (ev):

   -19.0807  -3.0544  -1.5252  -1.1981  13.8418  14.9126  16.2522  18.6084
    20.8867  31.8600

     occupation numbers 
     1.0000   1.0000   1.0000   1.0000   0.0000   0.0000   0.0000   0.0000
     0.0000   0.0000

          k =-1.0000 0.2333 0.0000 (  1376 PWs)   bands (ev):

   -19.0817  -3.0244  -1.5628  -1.1883  13.8471  14.8446  16.2577  18.5483
    21.1319  31.9222

     occupation numbers 
     1.0000   1.0000   1.0000   1.0000   0.0000   0.0000   0.0000   0.0000
     0.0000   0.0000

          k =-1.0000 0.2500 0.0000 (  1382 PWs)   bands (ev):

   -19.0827  -2.9926  -1.6024  -1.1792  13.8531  14.7784  16.2636  18.4875
    21.3876  31.9839

     occupation numbers 
     1.0000   1.0000   1.0000   1.0000   0.0000   0.0000   0.0000   0.0000
     0.0000   0.0000

          k =-1.0000 0.2667 0.0000 (  1384 PWs)   bands (ev):

   -19.0837  -2.9587  -1.6438  -1.1697  13.8600  14.7142  16.2696  18.4270
    21.6532  32.0444

     occupation numbers 
     1.0000   1.0000   1.0000   1.0000   0.0000   0.0000   0.0000   0.0000
     0.0000   0.0000

          k =-1.0000 0.2833 0.0000 (  1384 PWs)   bands (ev):

   -19.0846  -2.9231  -1.6870  -1.1599  13.8676  14.6524  16.2759  18.3675
    21.9283  31.6994

     occupation numbers 
     1.0000   1.0000   1.0000   1.0000   0.0000   0.0000   0.0000   0.0000
     0.0000   0.0000

          k =-1.0000 0.3000 0.0000 (  1384 PWs)   bands (ev):

   -19.0856  -2.8857  -1.7317  -1.1502  13.8762  14.5930  16.2823  18.3095
    22.2126  31.2476

     occupation numbers 
     1.0000   1.0000   1.0000   1.0000   0.0000   0.0000   0.0000   0.0000
     0.0000   0.0000

          k =-1.0000 0.3167 0.0000 (  1392 PWs)   bands (ev):

   -19.0865  -2.8471  -1.7782  -1.1413  13.8855  14.5359  16.2888  18.2535
    22.5056  30.8004

     occupation numbers 
     1.0000   1.0000   1.0000   1.0000   0.0000   0.0000   0.0000   0.0000
     0.0000   0.0000

          k =-1.0000 0.3333 0.0000 (  1396 PWs)   bands (ev):

   -19.0874  -2.8067  -1.8257  -1.1328  13.8960  14.4817  16.2953  18.2001
    22.8073  30.3582

     occupation numbers 
     1.0000   1.0000   1.0000   1.0000   0.0000   0.0000   0.0000   0.0000
     0.0000   0.0000

          k =-1.0000 0.3500 0.0000 (  1396 PWs)   bands (ev):

   -19.0882  -2.7646  -1.8741  -1.1243  13.9079  14.4302  16.3016  18.1500
    23.1172  29.9212

     occupation numbers 
     1.0000   1.0000   1.0000   1.0000   0.0000   0.0000   0.0000   0.0000
     0.0000   0.0000

          k =-1.0000 0.3667 0.0000 (  1388 PWs)   bands (ev):

   -19.0889  -2.7206  -1.9235  -1.1159  13.9215  14.3814  16.3078  18.1037
    23.4353  29.4896

     occupation numbers 
     1.0000   1.0000   1.0000   1.0000   0.0000   0.0000   0.0000   0.0000
     0.0000   0.0000

          k =-1.0000 0.3833 0.0000 (  1388 PWs)   bands (ev):

   -19.0896  -2.6758  -1.9736  -1.1087  13.9360  14.3353  16.3136  18.0615
    23.7612  29.0635

     occupation numbers 
     1.0000   1.0000   1.0000   1.0000   0.0000   0.0000   0.0000   0.0000
     0.0000   0.0000

          k =-1.0000 0.4000 0.0000 (  1384 PWs)   bands (ev):

   -19.0902  -2.6297  -2.0240  -1.1023  13.9519  14.2921  16.3190  18.0239
    24.0949  28.6432

     occupation numbers 
     1.0000   1.0000   1.0000   1.0000   0.0000   0.0000   0.0000   0.0000
     0.0000   0.0000

          k =-1.0000 0.4167 0.0000 (  1388 PWs)   bands (ev):

   -19.0908  -2.5826  -2.0756  -1.0970  13.9693  14.2511  16.3238  17.9912
    24.4360  28.2287

     occupation numbers 
     1.0000   1.0000   1.0000   1.0000   0.0000   0.0000   0.0000   0.0000
     0.0000   0.0000

          k =-1.0000 0.4333 0.0000 (  1388 PWs)   bands (ev):

   -19.0912  -2.5345  -2.1272  -1.0923  13.9885  14.2128  16.3279  17.9640
    24.7845  27.8202

     occupation numbers 
     1.0000   1.0000   1.0000   1.0000   0.0000   0.0000   0.0000   0.0000
     0.0000   0.0000

          k =-1.0000 0.4500 0.0000 (  1382 PWs)   bands (ev):

   -19.0915  -2.4851  -2.1788  -1.0884  14.0097  14.1771  16.3313  17.9425
    25.1402  27.4179

     occupation numbers 
     1.0000   1.0000   1.0000   1.0000   0.0000   0.0000   0.0000   0.0000
     0.0000   0.0000

          k =-1.0000 0.4667 0.0000 (  1384 PWs)   bands (ev):

   -19.0918  -2.4352  -2.2306  -1.0861  14.0324  14.1437  16.3338  17.9269
    25.5029  27.0218

     occupation numbers 
     1.0000   1.0000   1.0000   1.0000   0.0000   0.0000   0.0000   0.0000
     0.0000   0.0000

          k =-1.0000 0.4833 0.0000 (  1384 PWs)   bands (ev):

   -19.0919  -2.3847  -2.2823  -1.0846  14.0571  14.1126  16.3353  17.9175
    25.8726  26.6321

     occupation numbers 
     1.0000   1.0000   1.0000   1.0000   0.0000   0.0000   0.0000   0.0000
     0.0000   0.0000

          k =-1.0000 0.5000 0.0000 (  1384 PWs)   bands (ev):

   -19.0920  -2.3337  -2.3337  -1.0840  14.0838  14.0838  16.3358  17.9143
    26.2490  26.2490

     occupation numbers 
     1.0000   1.0000   1.0000   1.0000   0.0000   0.0000   0.0000   0.0000
     0.0000   0.0000

     highest occupied, lowest unoccupied level (ev):    -0.3012    8.1460

     Writing all to output data dir ./LiF.save/

     init_run     :      0.28s CPU      0.58s WALL (       1 calls)
     electrons    :     18.43s CPU     39.08s WALL (       1 calls)

     Called by init_run:
     wfcinit      :      0.00s CPU      0.00s WALL (       1 calls)
     wfcinit:atom :      0.11s CPU      0.07s WALL (     121 calls)
     wfcinit:wfcr :      2.65s CPU      6.88s WALL (     121 calls)
     potinit      :      0.01s CPU      0.01s WALL (       1 calls)
     hinit0       :      0.23s CPU      0.49s WALL (       1 calls)

     Called by electrons:
     c_bands      :     18.43s CPU     39.00s WALL (       1 calls)
     v_of_rho     :      0.00s CPU      0.00s WALL (       1 calls)
     v_h          :      0.00s CPU      0.00s WALL (       1 calls)
     v_xc         :      0.00s CPU      0.00s WALL (       1 calls)

     Called by c_bands:
     init_us_2    :      0.04s CPU      0.03s WALL (     121 calls)
     init_us_2:cp :      0.04s CPU      0.03s WALL (     121 calls)
     cegterg      :     15.09s CPU     31.57s WALL (     213 calls)

     Called by sum_band:

     Called by *egterg:
     cdiaghg      :      1.42s CPU      1.17s WALL (    3225 calls)
     cegterg:over :      0.70s CPU      2.34s WALL (    3104 calls)
     cegterg:upda :      0.66s CPU      2.14s WALL (    3104 calls)
     cegterg:last :      1.36s CPU      4.24s WALL (    1834 calls)
     h_psi        :     13.02s CPU     26.43s WALL (    3438 calls)
     g_psi        :      0.12s CPU      0.52s WALL (    3104 calls)

     Called by h_psi:
     h_psi:calbec :      0.45s CPU      0.59s WALL (    3438 calls)
     vloc_psi     :     11.17s CPU     21.46s WALL (    3438 calls)
     add_vuspsi   :      1.28s CPU      3.51s WALL (    3438 calls)

     General routines
     calbec       :      0.44s CPU      0.58s WALL (    3438 calls)
     fft          :      0.15s CPU      0.31s WALL (       4 calls)
     fftw         :      9.53s CPU     19.47s WALL (   45024 calls)
     davcio       :      0.03s CPU      0.09s WALL (     242 calls)

     Parallel routines

     PWSCF        :     19.55s CPU     41.91s WALL


   This run was terminated on:  11:43:51  30Mar2024            

=------------------------------------------------------------------------------=
   JOB DONE.
=------------------------------------------------------------------------------=
