
     Program PROJWFC v.7.1 starts on  2Apr2024 at  9:11:26 

     This program is part of the open-source Quantum ESPRESSO suite
     for quantum simulation of materials; please cite
         "P. Giannozzi et al., J. Phys.:Condens. Matter 21 395502 (2009);
         "P. Giannozzi et al., J. Phys.:Condens. Matter 29 465901 (2017);
         "P. Giannozzi et al., J. Chem. Phys. 152 154105 (2020);
          URL http://www.quantum-espresso.org", 
     in publications or presentations arising from this work. More details at
     http://www.quantum-espresso.org/quote

     Parallel version (MPI & OpenMP), running on       2 processor cores
     Number of MPI processes:                 1
     Threads/MPI process:                     2

     MPI processes distributed on     1 nodes
     51484 MiB available memory on the printing compute node when the environment starts


     Reading xml data from directory:

     ./LiF.save/
     file Li.LDA.cpi.UPF: wavefunction(s)  2p 3d 3f renormalized
     file F.LDA.cpi.UPF: wavefunction(s)  3d 4f renormalized

     IMPORTANT: XC functional enforced from input :
     Exchange-correlation= PZ
                           (   1   1   0   0   0   0   0)
     Any further DFT definition will be discarded
     Please, verify this is what you really want


     G-vector sticks info
     --------------------
     sticks:   dense  smooth     PW     G-vecs:    dense   smooth      PW
     Sum         649     649    199                11017    11017    1837

     Using Slab Decomposition


     Gaussian broadening (read from input): ngauss,degauss=   0    0.036748


     Calling projwave .... 
     Subspace diagonalization in iterative solution of the eigenvalue problem:
     a serial algorithm will be used


  Problem Sizes 
  natomwfc =           32
  nbnd     =           10
  nkstot   =          121
  npwx     =         1411
  nkb      =           18


     Atomic states used for projection
     (read from pseudopotential files):

     state #   1: atom   1 (Li ), wfc  1 (l=0 m= 1)
     state #   2: atom   1 (Li ), wfc  2 (l=1 m= 1)
     state #   3: atom   1 (Li ), wfc  2 (l=1 m= 2)
     state #   4: atom   1 (Li ), wfc  2 (l=1 m= 3)
     state #   5: atom   1 (Li ), wfc  3 (l=2 m= 1)
     state #   6: atom   1 (Li ), wfc  3 (l=2 m= 2)
     state #   7: atom   1 (Li ), wfc  3 (l=2 m= 3)
     state #   8: atom   1 (Li ), wfc  3 (l=2 m= 4)
     state #   9: atom   1 (Li ), wfc  3 (l=2 m= 5)
     state #  10: atom   1 (Li ), wfc  4 (l=3 m= 1)
     state #  11: atom   1 (Li ), wfc  4 (l=3 m= 2)
     state #  12: atom   1 (Li ), wfc  4 (l=3 m= 3)
     state #  13: atom   1 (Li ), wfc  4 (l=3 m= 4)
     state #  14: atom   1 (Li ), wfc  4 (l=3 m= 5)
     state #  15: atom   1 (Li ), wfc  4 (l=3 m= 6)
     state #  16: atom   1 (Li ), wfc  4 (l=3 m= 7)
     state #  17: atom   2 (F  ), wfc  1 (l=0 m= 1)
     state #  18: atom   2 (F  ), wfc  2 (l=1 m= 1)
     state #  19: atom   2 (F  ), wfc  2 (l=1 m= 2)
     state #  20: atom   2 (F  ), wfc  2 (l=1 m= 3)
     state #  21: atom   2 (F  ), wfc  3 (l=2 m= 1)
     state #  22: atom   2 (F  ), wfc  3 (l=2 m= 2)
     state #  23: atom   2 (F  ), wfc  3 (l=2 m= 3)
     state #  24: atom   2 (F  ), wfc  3 (l=2 m= 4)
     state #  25: atom   2 (F  ), wfc  3 (l=2 m= 5)
     state #  26: atom   2 (F  ), wfc  4 (l=3 m= 1)
     state #  27: atom   2 (F  ), wfc  4 (l=3 m= 2)
     state #  28: atom   2 (F  ), wfc  4 (l=3 m= 3)
     state #  29: atom   2 (F  ), wfc  4 (l=3 m= 4)
     state #  30: atom   2 (F  ), wfc  4 (l=3 m= 5)
     state #  31: atom   2 (F  ), wfc  4 (l=3 m= 6)
     state #  32: atom   2 (F  ), wfc  4 (l=3 m= 7)

 k =  -1.0000000000  0.5000000000  0.0000000000
==== e(   1) =   -19.09200 eV ==== 
     psi = 0.977*[#  17]+0.008*[#   5]+0.008*[#   8]+0.001*[#   2]+0.001*[#   3]
          +0.001*[#   4]
    |psi|^2 = 0.999
==== e(   2) =    -2.33370 eV ==== 
     psi = 0.309*[#  18]+0.309*[#  19]+0.309*[#  20]+0.017*[#   2]+0.017*[#   3]
          +0.017*[#   4]+0.002*[#   6]+0.002*[#   7]+0.002*[#   9]
    |psi|^2 = 0.989
==== e(   3) =    -2.33370 eV ==== 
     psi = 0.309*[#  18]+0.309*[#  19]+0.309*[#  20]+0.017*[#   2]+0.017*[#   3]
          +0.017*[#   4]+0.002*[#   6]+0.002*[#   7]+0.002*[#   9]
    |psi|^2 = 0.989
==== e(   4) =    -1.08404 eV ==== 
     psi = 0.321*[#  18]+0.321*[#  19]+0.321*[#  20]+0.012*[#   1]+0.010*[#   5]
          +0.010*[#   8]+0.002*[#  13]+0.001*[#  11]+0.001*[#  12]
    |psi|^2 = 0.999
==== e(   5) =    14.08377 eV ==== 
     psi = 0.111*[#   2]+0.111*[#   3]+0.111*[#   4]+0.035*[#   6]+0.035*[#   7]
          +0.035*[#   9]+0.018*[#  18]+0.018*[#  19]+0.018*[#  20]+0.012*[#  10]
          +0.007*[#  15]+0.007*[#  16]+0.005*[#  11]+0.005*[#  12]+0.003*[#  22]
          +0.003*[#  23]+0.003*[#  25]
    |psi|^2 = 0.535
==== e(   6) =    14.08377 eV ==== 
     psi = 0.111*[#   2]+0.111*[#   3]+0.111*[#   4]+0.035*[#   6]+0.035*[#   7]
          +0.035*[#   9]+0.018*[#  18]+0.018*[#  19]+0.018*[#  20]+0.012*[#  10]
          +0.007*[#  15]+0.007*[#  16]+0.005*[#  11]+0.005*[#  12]+0.003*[#  22]
          +0.003*[#  23]+0.003*[#  25]
    |psi|^2 = 0.535
==== e(   7) =    16.33579 eV ==== 
     psi = 0.217*[#   2]+0.217*[#   3]+0.217*[#   4]+0.014*[#   5]+0.014*[#   8]
          +0.007*[#  17]+0.005*[#  21]+0.005*[#  24]
    |psi|^2 = 0.697
==== e(   8) =    17.91432 eV ==== 
     psi = 0.761*[#   1]+0.009*[#  21]+0.009*[#  24]+0.005*[#  13]+0.004*[#  18]
          +0.004*[#  19]+0.004*[#  20]+0.003*[#  11]+0.003*[#  12]+0.002*[#  15]
          +0.002*[#  16]
    |psi|^2 = 0.807
==== e(   9) =    26.24903 eV ==== 
     psi = 0.101*[#   6]+0.101*[#   7]+0.101*[#   9]+0.088*[#   2]+0.088*[#   3]
          +0.088*[#   4]+0.029*[#  13]+0.020*[#  11]+0.020*[#  12]+0.014*[#  15]
          +0.014*[#  16]+0.008*[#  22]+0.008*[#  23]+0.008*[#  25]+0.005*[#  10]
          +0.002*[#  18]+0.002*[#  19]+0.002*[#  20]
    |psi|^2 = 0.703
==== e(  10) =    26.24903 eV ==== 
     psi = 0.101*[#   6]+0.101*[#   7]+0.101*[#   9]+0.088*[#   2]+0.088*[#   3]
          +0.088*[#   4]+0.029*[#  13]+0.020*[#  11]+0.020*[#  12]+0.014*[#  15]
          +0.014*[#  16]+0.008*[#  22]+0.008*[#  23]+0.008*[#  25]+0.005*[#  10]
          +0.002*[#  18]+0.002*[#  19]+0.002*[#  20]
    |psi|^2 = 0.703

 k =  -0.9833333333  0.5000000000  0.0166666667
==== e(   1) =   -19.09266 eV ==== 
     psi = 0.977*[#  17]+0.008*[#   5]+0.008*[#   8]+0.001*[#   2]+0.001*[#   3]
          +0.001*[#   4]
    |psi|^2 = 0.999
==== e(   2) =    -2.33548 eV ==== 
     psi = 0.309*[#  18]+0.309*[#  19]+0.309*[#  20]+0.017*[#   2]+0.017*[#   3]
          +0.017*[#   4]+0.002*[#   6]+0.002*[#   7]+0.002*[#   9]
    |psi|^2 = 0.989
==== e(   3) =    -2.32942 eV ==== 
     psi = 0.309*[#  18]+0.309*[#  19]+0.309*[#  20]+0.017*[#   2]+0.017*[#   3]
          +0.017*[#   4]+0.002*[#   6]+0.002*[#   7]+0.002*[#   9]
    |psi|^2 = 0.989
==== e(   4) =    -1.08196 eV ==== 
     psi = 0.321*[#  18]+0.321*[#  19]+0.321*[#  20]+0.012*[#   1]+0.010*[#   5]
          +0.010*[#   8]+0.002*[#  13]+0.001*[#  11]+0.001*[#  12]
    |psi|^2 = 0.999
==== e(   5) =    14.05845 eV ==== 
     psi = 0.112*[#   2]+0.112*[#   3]+0.112*[#   4]+0.035*[#   6]+0.035*[#   7]
          +0.035*[#   9]+0.017*[#  18]+0.017*[#  19]+0.017*[#  20]+0.012*[#  10]
          +0.007*[#  15]+0.007*[#  16]+0.004*[#  11]+0.004*[#  12]+0.003*[#  22]
          +0.003*[#  23]+0.003*[#  25]
    |psi|^2 = 0.535
==== e(   6) =    14.08693 eV ==== 
     psi = 0.111*[#   2]+0.111*[#   3]+0.111*[#   4]+0.035*[#   6]+0.035*[#   7]
          +0.035*[#   9]+0.018*[#  18]+0.018*[#  19]+0.018*[#  20]+0.012*[#  10]
          +0.007*[#  15]+0.007*[#  16]+0.004*[#  11]+0.004*[#  12]+0.003*[#   1]
          +0.003*[#  22]+0.003*[#  23]+0.003*[#  25]
    |psi|^2 = 0.537
==== e(   7) =    16.35812 eV ==== 
     psi = 0.216*[#   2]+0.216*[#   3]+0.216*[#   4]+0.014*[#   5]+0.014*[#   8]
          +0.007*[#  17]+0.005*[#  21]+0.005*[#  24]
    |psi|^2 = 0.696
==== e(   8) =    17.91445 eV ==== 
     psi = 0.759*[#   1]+0.009*[#  21]+0.009*[#  24]+0.005*[#  13]+0.004*[#  18]
          +0.004*[#  19]+0.004*[#  20]+0.003*[#  11]+0.003*[#  12]+0.002*[#  15]
          +0.002*[#  16]
    |psi|^2 = 0.806
==== e(   9) =    26.24281 eV ==== 
     psi = 0.101*[#   6]+0.101*[#   7]+0.101*[#   9]+0.088*[#   2]+0.088*[#   3]
          +0.088*[#   4]+0.029*[#  13]+0.020*[#  11]+0.020*[#  12]+0.014*[#  15]
          +0.014*[#  16]+0.008*[#  22]+0.008*[#  23]+0.008*[#  25]+0.005*[#  10]
          +0.002*[#  18]+0.002*[#  19]+0.002*[#  20]
    |psi|^2 = 0.703
==== e(  10) =    26.25434 eV ==== 
     psi = 0.101*[#   6]+0.101*[#   7]+0.101*[#   9]+0.088*[#   2]+0.088*[#   3]
          +0.088*[#   4]+0.029*[#  13]+0.020*[#  11]+0.020*[#  12]+0.014*[#  15]
          +0.014*[#  16]+0.008*[#  22]+0.008*[#  23]+0.008*[#  25]+0.005*[#  10]
          +0.002*[#  18]+0.002*[#  19]+0.002*[#  20]
    |psi|^2 = 0.703

 k =  -0.9666666667  0.5000000000  0.0333333333
==== e(   1) =   -19.09464 eV ==== 
     psi = 0.977*[#  17]+0.008*[#   5]+0.008*[#   8]+0.001*[#   2]+0.001*[#   3]
          +0.001*[#   4]
    |psi|^2 = 0.999
==== e(   2) =    -2.34079 eV ==== 
     psi = 0.309*[#  18]+0.309*[#  19]+0.309*[#  20]+0.017*[#   2]+0.017*[#   3]
          +0.017*[#   4]+0.002*[#   6]+0.002*[#   7]+0.002*[#   9]+0.001*[#   1]
          
    |psi|^2 = 0.990
==== e(   3) =    -2.31663 eV ==== 
     psi = 0.309*[#  18]+0.309*[#  19]+0.309*[#  20]+0.017*[#   2]+0.017*[#   3]
          +0.017*[#   4]+0.002*[#   6]+0.002*[#   7]+0.002*[#   9]
    |psi|^2 = 0.989
==== e(   4) =    -1.07579 eV ==== 
     psi = 0.321*[#  18]+0.321*[#  19]+0.321*[#  20]+0.011*[#   1]+0.010*[#   5]
          +0.010*[#   8]+0.002*[#  13]+0.001*[#  11]+0.001*[#  12]
    |psi|^2 = 0.999
==== e(   5) =    13.98561 eV ==== 
     psi = 0.114*[#   2]+0.114*[#   3]+0.114*[#   4]+0.033*[#   6]+0.033*[#   7]
          +0.033*[#   9]+0.017*[#  18]+0.017*[#  19]+0.017*[#  20]+0.012*[#  10]
          +0.007*[#  15]+0.007*[#  16]+0.004*[#  11]+0.004*[#  12]+0.003*[#  22]
          +0.003*[#  23]+0.003*[#  25]
    |psi|^2 = 0.537
==== e(   6) =    14.09638 eV ==== 
     psi = 0.111*[#   2]+0.111*[#   3]+0.111*[#   4]+0.035*[#   6]+0.035*[#   7]
          +0.035*[#   9]+0.018*[#  18]+0.018*[#  19]+0.018*[#  20]+0.012*[#  10]
          +0.012*[#   1]+0.007*[#  15]+0.007*[#  16]+0.004*[#  11]+0.004*[#  12]
          +0.003*[#  22]+0.003*[#  23]+0.003*[#  25]
    |psi|^2 = 0.545
==== e(   7) =    16.42191 eV ==== 
     psi = 0.215*[#   2]+0.215*[#   3]+0.215*[#   4]+0.013*[#   5]+0.013*[#   8]
          +0.006*[#  17]+0.005*[#  21]+0.005*[#  24]+0.001*[#   6]+0.001*[#   7]
          +0.001*[#   9]
    |psi|^2 = 0.696
==== e(   8) =    17.91486 eV ==== 
     psi = 0.751*[#   1]+0.009*[#  21]+0.009*[#  24]+0.005*[#  13]+0.004*[#  18]
          +0.004*[#  19]+0.004*[#  20]+0.003*[#  11]+0.003*[#  12]+0.002*[#  15]
          +0.002*[#  16]+0.001*[#   2]+0.001*[#   3]+0.001*[#   4]
    |psi|^2 = 0.801
==== e(   9) =    26.22477 eV ==== 
     psi = 0.101*[#   6]+0.101*[#   7]+0.101*[#   9]+0.086*[#   2]+0.086*[#   3]
          +0.086*[#   4]+0.029*[#  13]+0.020*[#  11]+0.020*[#  12]+0.014*[#  15]
          +0.014*[#  16]+0.008*[#  22]+0.008*[#  23]+0.008*[#  25]+0.005*[#  10]
          +0.002*[#  18]+0.002*[#  19]+0.002*[#  20]+0.002*[#   5]+0.002*[#   8]
          
    |psi|^2 = 0.702
==== e(  10) =    26.27024 eV ==== 
     psi = 0.102*[#   6]+0.102*[#   7]+0.102*[#   9]+0.087*[#   2]+0.087*[#   3]
          +0.087*[#   4]+0.029*[#  13]+0.020*[#  11]+0.020*[#  12]+0.014*[#  15]
          +0.014*[#  16]+0.008*[#  22]+0.008*[#  23]+0.008*[#  25]+0.005*[#  10]
          +0.002*[#  18]+0.002*[#  19]+0.002*[#  20]
    |psi|^2 = 0.701

 k =  -0.9500000000  0.5000000000  0.0500000000
==== e(   1) =   -19.09792 eV ==== 
     psi = 0.977*[#  17]+0.008*[#   5]+0.008*[#   8]+0.001*[#   2]+0.001*[#   3]
          +0.001*[#   4]
    |psi|^2 = 0.999
==== e(   2) =    -2.34972 eV ==== 
     psi = 0.310*[#  18]+0.310*[#  19]+0.310*[#  20]+0.016*[#   2]+0.016*[#   3]
          +0.016*[#   4]+0.003*[#   1]+0.002*[#   6]+0.002*[#   7]+0.002*[#   9]
          
    |psi|^2 = 0.990
==== e(   3) =    -2.29534 eV ==== 
     psi = 0.309*[#  18]+0.309*[#  19]+0.309*[#  20]+0.017*[#   2]+0.017*[#   3]
          +0.017*[#   4]+0.002*[#   6]+0.002*[#   7]+0.002*[#   9]
    |psi|^2 = 0.989
==== e(   4) =    -1.06586 eV ==== 
     psi = 0.320*[#  18]+0.320*[#  19]+0.320*[#  20]+0.011*[#   1]+0.010*[#   5]
          +0.010*[#   8]+0.002*[#  13]+0.001*[#  11]+0.001*[#  12]
    |psi|^2 = 0.999
==== e(   5) =    13.87299 eV ==== 
     psi = 0.117*[#   2]+0.117*[#   3]+0.117*[#   4]+0.031*[#   6]+0.031*[#   7]
          +0.031*[#   9]+0.016*[#  18]+0.016*[#  19]+0.016*[#  20]+0.011*[#  10]
          +0.007*[#  15]+0.007*[#  16]+0.004*[#  11]+0.004*[#  12]+0.003*[#  22]
          +0.003*[#  23]+0.003*[#  25]+0.001*[#   5]+0.001*[#   8]
    |psi|^2 = 0.538
==== e(   6) =    14.11190 eV ==== 
     psi = 0.110*[#   2]+0.110*[#   3]+0.110*[#   4]+0.035*[#   6]+0.035*[#   7]
          +0.035*[#   9]+0.026*[#   1]+0.018*[#  18]+0.018*[#  19]+0.018*[#  20]
          +0.011*[#  10]+0.007*[#  15]+0.007*[#  16]+0.004*[#  11]+0.004*[#  12]
          +0.003*[#  22]+0.003*[#  23]+0.003*[#  25]
    |psi|^2 = 0.557
==== e(   7) =    16.51913 eV ==== 
     psi = 0.213*[#   2]+0.213*[#   3]+0.213*[#   4]+0.012*[#   5]+0.012*[#   8]
          +0.006*[#  17]+0.005*[#  21]+0.005*[#  24]+0.003*[#   6]+0.003*[#   7]
          +0.003*[#   9]+0.001*[#  18]+0.001*[#  19]+0.001*[#  20]
    |psi|^2 = 0.695
==== e(   8) =    17.91547 eV ==== 
     psi = 0.738*[#   1]+0.009*[#  21]+0.009*[#  24]+0.005*[#  13]+0.004*[#  18]
          +0.004*[#  19]+0.004*[#  20]+0.003*[#  11]+0.003*[#  12]+0.003*[#   2]
          +0.003*[#   3]+0.003*[#   4]+0.002*[#  15]+0.002*[#  16]
    |psi|^2 = 0.793
==== e(   9) =    26.19672 eV ==== 
     psi = 0.101*[#   6]+0.101*[#   7]+0.101*[#   9]+0.085*[#   2]+0.085*[#   3]
          +0.085*[#   4]+0.028*[#  13]+0.020*[#  11]+0.020*[#  12]+0.014*[#  15]
          +0.014*[#  16]+0.008*[#  22]+0.008*[#  23]+0.008*[#  25]+0.005*[#  10]
          +0.004*[#   5]+0.004*[#   8]+0.002*[#  18]+0.002*[#  19]+0.002*[#  20]
          
    |psi|^2 = 0.701
==== e(  10) =    26.29663 eV ==== 
     psi = 0.102*[#   6]+0.102*[#   7]+0.102*[#   9]+0.087*[#   2]+0.087*[#   3]
          +0.087*[#   4]+0.029*[#  13]+0.020*[#  11]+0.020*[#  12]+0.014*[#  15]
          +0.014*[#  16]+0.008*[#  22]+0.008*[#  23]+0.008*[#  25]+0.005*[#  10]
          +0.002*[#  18]+0.002*[#  19]+0.002*[#  20]
    |psi|^2 = 0.699

 k =  -0.9333333333  0.5000000000  0.0666666667
==== e(   1) =   -19.10246 eV ==== 
     psi = 0.977*[#  17]+0.008*[#   5]+0.008*[#   8]+0.001*[#   2]+0.001*[#   3]
          +0.001*[#   4]
    |psi|^2 = 0.999
==== e(   2) =    -2.36172 eV ==== 
     psi = 0.310*[#  18]+0.310*[#  19]+0.310*[#  20]+0.016*[#   2]+0.016*[#   3]
          +0.016*[#   4]+0.005*[#   1]+0.002*[#   6]+0.002*[#   7]+0.002*[#   9]
          
    |psi|^2 = 0.991
==== e(   3) =    -2.26609 eV ==== 
     psi = 0.310*[#  18]+0.310*[#  19]+0.310*[#  20]+0.017*[#   2]+0.017*[#   3]
          +0.017*[#   4]+0.002*[#   6]+0.002*[#   7]+0.002*[#   9]
    |psi|^2 = 0.989
==== e(   4) =    -1.05233 eV ==== 
     psi = 0.320*[#  18]+0.320*[#  19]+0.320*[#  20]+0.010*[#   5]+0.010*[#   8]
          +0.010*[#   1]+0.002*[#  13]+0.001*[#  11]+0.001*[#  12]
    |psi|^2 = 0.999
==== e(   5) =    13.72965 eV ==== 
     psi = 0.120*[#   2]+0.120*[#   3]+0.120*[#   4]+0.029*[#   6]+0.029*[#   7]
          +0.029*[#   9]+0.015*[#  18]+0.015*[#  19]+0.015*[#  20]+0.011*[#  10]
          +0.007*[#  15]+0.007*[#  16]+0.004*[#  11]+0.004*[#  12]+0.002*[#  22]
          +0.002*[#  23]+0.002*[#  25]+0.002*[#   5]+0.002*[#   8]+0.001*[#  17]
          
    |psi|^2 = 0.539
==== e(   6) =    14.13367 eV ==== 
     psi = 0.109*[#   2]+0.109*[#   3]+0.109*[#   4]+0.046*[#   1]+0.035*[#   6]
          +0.035*[#   7]+0.035*[#   9]+0.018*[#  18]+0.018*[#  19]+0.018*[#  20]
          +0.011*[#  10]+0.007*[#  15]+0.007*[#  16]+0.004*[#  11]+0.004*[#  12]
          +0.003*[#  22]+0.003*[#  23]+0.003*[#  25]
    |psi|^2 = 0.574
==== e(   7) =    16.63996 eV ==== 
     psi = 0.211*[#   2]+0.211*[#   3]+0.211*[#   4]+0.011*[#   5]+0.011*[#   8]
          +0.005*[#  17]+0.005*[#  21]+0.005*[#  24]+0.004*[#   6]+0.004*[#   7]
          +0.004*[#   9]+0.002*[#  18]+0.002*[#  19]+0.002*[#  20]
    |psi|^2 = 0.696
==== e(   8) =    17.91629 eV ==== 
     psi = 0.719*[#   1]+0.009*[#  21]+0.009*[#  24]+0.006*[#   2]+0.006*[#   3]
          +0.006*[#   4]+0.006*[#  13]+0.004*[#  11]+0.004*[#  12]+0.004*[#  18]
          +0.004*[#  19]+0.004*[#  20]+0.002*[#  15]+0.002*[#  16]
    |psi|^2 = 0.783
==== e(   9) =    26.16148 eV ==== 
     psi = 0.101*[#   6]+0.101*[#   7]+0.101*[#   9]+0.082*[#   2]+0.082*[#   3]
          +0.082*[#   4]+0.028*[#  13]+0.019*[#  11]+0.019*[#  12]+0.014*[#  15]
          +0.014*[#  16]+0.008*[#  22]+0.008*[#  23]+0.008*[#  25]+0.007*[#   5]
          +0.007*[#   8]+0.005*[#  10]+0.002*[#  18]+0.002*[#  19]+0.002*[#  20]
          
    |psi|^2 = 0.699
==== e(  10) =    26.33338 eV ==== 
     psi = 0.102*[#   6]+0.102*[#   7]+0.102*[#   9]+0.085*[#   2]+0.085*[#   3]
          +0.085*[#   4]+0.028*[#  13]+0.019*[#  11]+0.019*[#  12]+0.013*[#  15]
          +0.013*[#  16]+0.008*[#  22]+0.008*[#  23]+0.008*[#  25]+0.005*[#  10]
          +0.002*[#  18]+0.002*[#  19]+0.002*[#  20]
    |psi|^2 = 0.695

 k =  -0.9166666667  0.5000000000  0.0833333333
==== e(   1) =   -19.10821 eV ==== 
     psi = 0.977*[#  17]+0.007*[#   5]+0.007*[#   8]+0.001*[#   2]+0.001*[#   3]
          +0.001*[#   4]
    |psi|^2 = 0.999
==== e(   2) =    -2.37677 eV ==== 
     psi = 0.310*[#  18]+0.310*[#  19]+0.310*[#  20]+0.015*[#   2]+0.015*[#   3]
          +0.015*[#   4]+0.007*[#   1]+0.003*[#   6]+0.003*[#   7]+0.003*[#   9]
          
    |psi|^2 = 0.991
==== e(   3) =    -2.22871 eV ==== 
     psi = 0.310*[#  18]+0.310*[#  19]+0.310*[#  20]+0.016*[#   2]+0.016*[#   3]
          +0.016*[#   4]+0.002*[#   6]+0.002*[#   7]+0.002*[#   9]
    |psi|^2 = 0.989
==== e(   4) =    -1.03529 eV ==== 
     psi = 0.320*[#  18]+0.320*[#  19]+0.320*[#  20]+0.010*[#   5]+0.010*[#   8]
          +0.009*[#   1]+0.002*[#  13]+0.001*[#  11]+0.001*[#  12]
    |psi|^2 = 0.999
==== e(   5) =    13.56413 eV ==== 
     psi = 0.123*[#   2]+0.123*[#   3]+0.123*[#   4]+0.027*[#   6]+0.027*[#   7]
          +0.027*[#   9]+0.014*[#  18]+0.014*[#  19]+0.014*[#  20]+0.010*[#  10]
          +0.007*[#  15]+0.007*[#  16]+0.004*[#  11]+0.004*[#  12]+0.003*[#   5]
          +0.003*[#   8]+0.002*[#  22]+0.002*[#  23]+0.002*[#  25]+0.002*[#  17]
          +0.001*[#  14]
    |psi|^2 = 0.540
==== e(   6) =    14.16141 eV ==== 
     psi = 0.109*[#   2]+0.109*[#   3]+0.109*[#   4]+0.071*[#   1]+0.035*[#   6]
          +0.035*[#   7]+0.035*[#   9]+0.018*[#  18]+0.018*[#  19]+0.018*[#  20]
          +0.011*[#  10]+0.007*[#  15]+0.007*[#  16]+0.004*[#  11]+0.004*[#  12]
          +0.002*[#  22]+0.002*[#  23]+0.002*[#  25]
    |psi|^2 = 0.596
==== e(   7) =    16.77545 eV ==== 
     psi = 0.211*[#   2]+0.211*[#   3]+0.211*[#   4]+0.010*[#   5]+0.010*[#   8]
          +0.006*[#  21]+0.006*[#  24]+0.005*[#   6]+0.005*[#   7]+0.005*[#   9]
          +0.005*[#  17]+0.003*[#  18]+0.003*[#  19]+0.003*[#  20]+0.001*[#  10]
          
    |psi|^2 = 0.697
==== e(   8) =    17.91730 eV ==== 
     psi = 0.696*[#   1]+0.009*[#  21]+0.009*[#  24]+0.009*[#   2]+0.009*[#   3]
          +0.009*[#   4]+0.006*[#  13]+0.004*[#  11]+0.004*[#  12]+0.004*[#  18]
          +0.004*[#  19]+0.004*[#  20]+0.002*[#  15]+0.002*[#  16]
    |psi|^2 = 0.769
==== e(   9) =    26.12264 eV ==== 
     psi = 0.102*[#   6]+0.102*[#   7]+0.102*[#   9]+0.079*[#   2]+0.079*[#   3]
          +0.079*[#   4]+0.027*[#  13]+0.019*[#  11]+0.019*[#  12]+0.014*[#  15]
          +0.014*[#  16]+0.011*[#   5]+0.011*[#   8]+0.008*[#  22]+0.008*[#  23]
          +0.008*[#  25]+0.005*[#  10]+0.002*[#  14]+0.001*[#  18]+0.001*[#  19]
          +0.001*[#  20]+0.001*[#  17]
    |psi|^2 = 0.697
==== e(  10) =    26.38029 eV ==== 
     psi = 0.102*[#   6]+0.102*[#   7]+0.102*[#   9]+0.084*[#   2]+0.084*[#   3]
          +0.084*[#   4]+0.028*[#  13]+0.019*[#  11]+0.019*[#  12]+0.013*[#  15]
          +0.013*[#  16]+0.008*[#  22]+0.008*[#  23]+0.008*[#  25]+0.005*[#  10]
          +0.002*[#  18]+0.002*[#  19]+0.002*[#  20]+0.001*[#   5]+0.001*[#   8]
          
    |psi|^2 = 0.691

 k =  -0.9000000000  0.5000000000  0.1000000000
==== e(   1) =   -19.11506 eV ==== 
     psi = 0.977*[#  17]+0.007*[#   5]+0.007*[#   8]+0.001*[#   2]+0.001*[#   3]
          +0.001*[#   4]+0.001*[#  10]
    |psi|^2 = 0.999
==== e(   2) =    -2.39388 eV ==== 
     psi = 0.310*[#  18]+0.310*[#  19]+0.310*[#  20]+0.014*[#   2]+0.014*[#   3]
          +0.014*[#   4]+0.010*[#   1]+0.003*[#   6]+0.003*[#   7]+0.003*[#   9]
          
    |psi|^2 = 0.992
==== e(   3) =    -2.18315 eV ==== 
     psi = 0.310*[#  18]+0.310*[#  19]+0.310*[#  20]+0.016*[#   2]+0.016*[#   3]
          +0.016*[#   4]+0.002*[#   6]+0.002*[#   7]+0.002*[#   9]+0.001*[#   5]
          +0.001*[#   8]
    |psi|^2 = 0.989
==== e(   4) =    -1.01524 eV ==== 
     psi = 0.320*[#  18]+0.320*[#  19]+0.320*[#  20]+0.010*[#   5]+0.010*[#   8]
          +0.008*[#   1]+0.002*[#  13]+0.001*[#   2]+0.001*[#   3]+0.001*[#   4]
          +0.001*[#  11]+0.001*[#  12]
    |psi|^2 = 0.998
==== e(   5) =    13.38321 eV ==== 
     psi = 0.125*[#   2]+0.125*[#   3]+0.125*[#   4]+0.025*[#   6]+0.025*[#   7]
          +0.025*[#   9]+0.014*[#  18]+0.014*[#  19]+0.014*[#  20]+0.010*[#  10]
          +0.006*[#  15]+0.006*[#  16]+0.004*[#  11]+0.004*[#  12]+0.003*[#   5]
          +0.003*[#   8]+0.002*[#  22]+0.002*[#  23]+0.002*[#  25]+0.002*[#  17]
          +0.001*[#  14]
    |psi|^2 = 0.540
==== e(   6) =    14.19542 eV ==== 
     psi = 0.107*[#   2]+0.107*[#   3]+0.107*[#   4]+0.101*[#   1]+0.034*[#   6]
          +0.034*[#   7]+0.034*[#   9]+0.018*[#  18]+0.018*[#  19]+0.018*[#  20]
          +0.010*[#  10]+0.007*[#  15]+0.007*[#  16]+0.004*[#  11]+0.004*[#  12]
          +0.002*[#  22]+0.002*[#  23]+0.002*[#  25]
    |psi|^2 = 0.621
==== e(   7) =    16.91820 eV ==== 
     psi = 0.211*[#   2]+0.211*[#   3]+0.211*[#   4]+0.009*[#   5]+0.009*[#   8]
          +0.006*[#  21]+0.006*[#  24]+0.006*[#   6]+0.006*[#   7]+0.006*[#   9]
          +0.004*[#  17]+0.003*[#  18]+0.003*[#  19]+0.003*[#  20]+0.001*[#  10]
          +0.001*[#  15]+0.001*[#  16]
    |psi|^2 = 0.700
==== e(   8) =    17.91848 eV ==== 
     psi = 0.668*[#   1]+0.013*[#   2]+0.013*[#   3]+0.013*[#   4]+0.009*[#  21]
          +0.009*[#  24]+0.006*[#  13]+0.004*[#  11]+0.004*[#  12]+0.003*[#  18]
          +0.003*[#  19]+0.003*[#  20]+0.002*[#  15]+0.002*[#  16]
    |psi|^2 = 0.754
==== e(   9) =    26.08422 eV ==== 
     psi = 0.102*[#   6]+0.102*[#   7]+0.102*[#   9]+0.075*[#   2]+0.075*[#   3]
          +0.075*[#   4]+0.027*[#  13]+0.019*[#  11]+0.019*[#  12]+0.015*[#   5]
          +0.015*[#   8]+0.014*[#  15]+0.014*[#  16]+0.008*[#  22]+0.008*[#  23]
          +0.008*[#  25]+0.006*[#  10]+0.002*[#  14]+0.001*[#  17]+0.001*[#  18]
          +0.001*[#  19]+0.001*[#  20]
    |psi|^2 = 0.694
==== e(  10) =    26.43711 eV ==== 
     psi = 0.102*[#   6]+0.102*[#   7]+0.102*[#   9]+0.082*[#   2]+0.082*[#   3]
          +0.082*[#   4]+0.027*[#  13]+0.019*[#  11]+0.019*[#  12]+0.013*[#  15]
          +0.013*[#  16]+0.008*[#  22]+0.008*[#  23]+0.008*[#  25]+0.005*[#  10]
          +0.002*[#  18]+0.002*[#  19]+0.002*[#  20]+0.002*[#   5]+0.002*[#   8]
          
    |psi|^2 = 0.685

 k =  -0.8833333333  0.5000000000  0.1166666667
==== e(   1) =   -19.12297 eV ==== 
     psi = 0.977*[#  17]+0.007*[#   5]+0.007*[#   8]+0.002*[#   2]+0.002*[#   3]
          +0.002*[#   4]+0.001*[#  10]
    |psi|^2 = 0.999
==== e(   2) =    -2.41308 eV ==== 
     psi = 0.310*[#  18]+0.310*[#  19]+0.310*[#  20]+0.013*[#   2]+0.013*[#   3]
          +0.013*[#   4]+0.013*[#   1]+0.003*[#   6]+0.003*[#   7]+0.003*[#   9]
          
    |psi|^2 = 0.993
==== e(   3) =    -2.13049 eV ==== 
     psi = 0.310*[#  18]+0.310*[#  19]+0.310*[#  20]+0.016*[#   2]+0.016*[#   3]
          +0.016*[#   4]+0.002*[#   6]+0.002*[#   7]+0.002*[#   9]+0.002*[#   5]
          +0.002*[#   8]
    |psi|^2 = 0.989
==== e(   4) =    -0.99257 eV ==== 
     psi = 0.320*[#  18]+0.320*[#  19]+0.320*[#  20]+0.010*[#   5]+0.010*[#   8]
          +0.007*[#   1]+0.002*[#  13]+0.001*[#   2]+0.001*[#   3]+0.001*[#   4]
          +0.001*[#  11]+0.001*[#  12]
    |psi|^2 = 0.998
==== e(   5) =    13.19144 eV ==== 
     psi = 0.128*[#   2]+0.128*[#   3]+0.128*[#   4]+0.022*[#   6]+0.022*[#   7]
          +0.022*[#   9]+0.013*[#  18]+0.013*[#  19]+0.013*[#  20]+0.010*[#  10]
          +0.006*[#  15]+0.006*[#  16]+0.004*[#   5]+0.004*[#   8]+0.004*[#  11]
          +0.004*[#  12]+0.002*[#  17]+0.002*[#  22]+0.002*[#  23]+0.002*[#  25]
          +0.002*[#  14]
    |psi|^2 = 0.540
==== e(   6) =    14.23528 eV ==== 
     psi = 0.134*[#   1]+0.106*[#   2]+0.106*[#   3]+0.106*[#   4]+0.034*[#   6]
          +0.034*[#   7]+0.034*[#   9]+0.018*[#  18]+0.018*[#  19]+0.018*[#  20]
          +0.010*[#  10]+0.006*[#  15]+0.006*[#  16]+0.004*[#  11]+0.004*[#  12]
          +0.002*[#  22]+0.002*[#  23]+0.002*[#  25]
    |psi|^2 = 0.649
==== e(   7) =    17.06226 eV ==== 
     psi = 0.211*[#   2]+0.211*[#   3]+0.211*[#   4]+0.008*[#   5]+0.008*[#   8]
          +0.006*[#   6]+0.006*[#   7]+0.006*[#   9]+0.006*[#  21]+0.006*[#  24]
          +0.004*[#  17]+0.004*[#  18]+0.004*[#  19]+0.004*[#  20]+0.002*[#  10]
          +0.001*[#  15]+0.001*[#  16]+0.001*[#  11]+0.001*[#  12]+0.001*[#  13]
          
    |psi|^2 = 0.704
==== e(   8) =    17.91975 eV ==== 
     psi = 0.636*[#   1]+0.017*[#   2]+0.017*[#   3]+0.017*[#   4]+0.009*[#  21]
          +0.009*[#  24]+0.006*[#  13]+0.004*[#  11]+0.004*[#  12]+0.003*[#  18]
          +0.003*[#  19]+0.003*[#  20]+0.002*[#  15]+0.002*[#  16]
    |psi|^2 = 0.737
==== e(   9) =    26.05044 eV ==== 
     psi = 0.102*[#   6]+0.102*[#   7]+0.102*[#   9]+0.071*[#   2]+0.071*[#   3]
          +0.071*[#   4]+0.026*[#  13]+0.019*[#   5]+0.019*[#   8]+0.018*[#  11]
          +0.018*[#  12]+0.014*[#  15]+0.014*[#  16]+0.008*[#  22]+0.008*[#  23]
          +0.008*[#  25]+0.006*[#  10]+0.003*[#  14]+0.002*[#  17]+0.001*[#  21]
          +0.001*[#  24]
    |psi|^2 = 0.690
==== e(  10) =    26.50349 eV ==== 
     psi = 0.102*[#   6]+0.102*[#   7]+0.102*[#   9]+0.080*[#   2]+0.080*[#   3]
          +0.080*[#   4]+0.026*[#  13]+0.018*[#  11]+0.018*[#  12]+0.013*[#  15]
          +0.013*[#  16]+0.008*[#  22]+0.008*[#  23]+0.008*[#  25]+0.005*[#  10]
          +0.002*[#   5]+0.002*[#   8]+0.002*[#  18]+0.002*[#  19]+0.002*[#  20]
          
    |psi|^2 = 0.679

 k =  -0.8666666667  0.5000000000  0.1333333333
==== e(   1) =   -19.13183 eV ==== 
     psi = 0.977*[#  17]+0.007*[#   5]+0.007*[#   8]+0.002*[#   2]+0.002*[#   3]
          +0.002*[#   4]+0.001*[#  10]
    |psi|^2 = 0.999
==== e(   2) =    -2.43397 eV ==== 
     psi = 0.310*[#  18]+0.310*[#  19]+0.310*[#  20]+0.016*[#   1]+0.012*[#   2]
          +0.012*[#   3]+0.012*[#   4]+0.003*[#   6]+0.003*[#   7]+0.003*[#   9]
          
    |psi|^2 = 0.994
==== e(   3) =    -2.07072 eV ==== 
     psi = 0.310*[#  18]+0.310*[#  19]+0.310*[#  20]+0.015*[#   2]+0.015*[#   3]
          +0.015*[#   4]+0.002*[#   5]+0.002*[#   6]+0.002*[#   7]+0.002*[#   8]
          +0.002*[#   9]
    |psi|^2 = 0.990
==== e(   4) =    -0.96784 eV ==== 
     psi = 0.320*[#  18]+0.320*[#  19]+0.320*[#  20]+0.011*[#   5]+0.011*[#   8]
          +0.006*[#   1]+0.002*[#   2]+0.002*[#   3]+0.002*[#   4]+0.002*[#  13]
          +0.001*[#  11]+0.001*[#  12]
    |psi|^2 = 0.998
==== e(   5) =    12.99274 eV ==== 
     psi = 0.130*[#   2]+0.130*[#   3]+0.130*[#   4]+0.020*[#   6]+0.020*[#   7]
          +0.020*[#   9]+0.012*[#  18]+0.012*[#  19]+0.012*[#  20]+0.010*[#  10]
          +0.006*[#  15]+0.006*[#  16]+0.004*[#   5]+0.004*[#   8]+0.004*[#  11]
          +0.004*[#  12]+0.003*[#  17]+0.002*[#  22]+0.002*[#  23]+0.002*[#  25]
          +0.002*[#  14]
    |psi|^2 = 0.539
==== e(   6) =    14.28081 eV ==== 
     psi = 0.171*[#   1]+0.104*[#   2]+0.104*[#   3]+0.104*[#   4]+0.034*[#   6]
          +0.034*[#   7]+0.034*[#   9]+0.019*[#  18]+0.019*[#  19]+0.019*[#  20]
          +0.009*[#  10]+0.006*[#  15]+0.006*[#  16]+0.004*[#  11]+0.004*[#  12]
          +0.002*[#  22]+0.002*[#  23]+0.002*[#  25]
    |psi|^2 = 0.679
==== e(   7) =    17.20301 eV ==== 
     psi = 0.212*[#   2]+0.212*[#   3]+0.212*[#   4]+0.007*[#   5]+0.007*[#   8]
          +0.006*[#  21]+0.006*[#  24]+0.006*[#   6]+0.006*[#   7]+0.006*[#   9]
          +0.004*[#  18]+0.004*[#  19]+0.004*[#  20]+0.003*[#  17]+0.002*[#  10]
          +0.001*[#  11]+0.001*[#  12]+0.002*[#  15]+0.002*[#  16]+0.001*[#  13]
          
    |psi|^2 = 0.708
==== e(   8) =    17.92102 eV ==== 
     psi = 0.601*[#   1]+0.023*[#   2]+0.023*[#   3]+0.023*[#   4]+0.009*[#  21]
          +0.009*[#  24]+0.006*[#  13]+0.004*[#  11]+0.004*[#  12]+0.003*[#  18]
          +0.003*[#  19]+0.003*[#  20]+0.002*[#  15]+0.002*[#  16]
    |psi|^2 = 0.718
==== e(   9) =    26.02553 eV ==== 
     psi = 0.103*[#   6]+0.103*[#   7]+0.103*[#   9]+0.067*[#   2]+0.067*[#   3]
          +0.067*[#   4]+0.025*[#  13]+0.023*[#   5]+0.023*[#   8]+0.018*[#  11]
          +0.018*[#  12]+0.014*[#  15]+0.014*[#  16]+0.008*[#  22]+0.008*[#  23]
          +0.008*[#  25]+0.007*[#  10]+0.004*[#  14]+0.002*[#  17]+0.001*[#  21]
          +0.001*[#  24]
    |psi|^2 = 0.687
==== e(  10) =    26.57902 eV ==== 
     psi = 0.103*[#   6]+0.103*[#   7]+0.103*[#   9]+0.078*[#   2]+0.078*[#   3]
          +0.078*[#   4]+0.026*[#  13]+0.018*[#  11]+0.018*[#  12]+0.012*[#  15]
          +0.012*[#  16]+0.008*[#  22]+0.008*[#  23]+0.008*[#  25]+0.005*[#  10]
          +0.003*[#   5]+0.003*[#   8]+0.002*[#  18]+0.002*[#  19]+0.002*[#  20]
          
    |psi|^2 = 0.672

 k =  -0.8500000000  0.5000000000  0.1500000000
==== e(   1) =   -19.14154 eV ==== 
     psi = 0.978*[#  17]+0.006*[#   5]+0.006*[#   8]+0.002*[#   2]+0.002*[#   3]
          +0.002*[#   4]+0.001*[#  10]
    |psi|^2 = 0.999
==== e(   2) =    -2.45628 eV ==== 
     psi = 0.310*[#  18]+0.310*[#  19]+0.310*[#  20]+0.019*[#   1]+0.012*[#   2]
          +0.012*[#   3]+0.012*[#   4]+0.003*[#   6]+0.003*[#   7]+0.003*[#   9]
          
    |psi|^2 = 0.995
==== e(   3) =    -2.00433 eV ==== 
     psi = 0.310*[#  18]+0.310*[#  19]+0.310*[#  20]+0.015*[#   2]+0.015*[#   3]
          +0.015*[#   4]+0.003*[#   5]+0.003*[#   8]+0.002*[#   6]+0.002*[#   7]
          +0.002*[#   9]
    |psi|^2 = 0.990
==== e(   4) =    -0.94130 eV ==== 
     psi = 0.320*[#  18]+0.320*[#  19]+0.320*[#  20]+0.011*[#   5]+0.011*[#   8]
          +0.005*[#   1]+0.002*[#   2]+0.002*[#   3]+0.002*[#   4]+0.002*[#  13]
          +0.001*[#  11]+0.001*[#  12]
    |psi|^2 = 0.998
==== e(   5) =    12.78981 eV ==== 
     psi = 0.131*[#   2]+0.131*[#   3]+0.131*[#   4]+0.019*[#   6]+0.019*[#   7]
          +0.019*[#   9]+0.012*[#  18]+0.012*[#  19]+0.012*[#  20]+0.010*[#  10]
          +0.006*[#  15]+0.006*[#  16]+0.005*[#   5]+0.005*[#   8]+0.004*[#  11]
          +0.004*[#  12]+0.003*[#  17]+0.003*[#  14]+0.002*[#  22]+0.002*[#  23]
          +0.002*[#  25]
    |psi|^2 = 0.537
==== e(   6) =    14.33171 eV ==== 
     psi = 0.209*[#   1]+0.102*[#   2]+0.102*[#   3]+0.102*[#   4]+0.034*[#   6]
          +0.034*[#   7]+0.034*[#   9]+0.019*[#  18]+0.019*[#  19]+0.019*[#  20]
          +0.009*[#  10]+0.006*[#  15]+0.006*[#  16]+0.004*[#  11]+0.004*[#  12]
          +0.002*[#  22]+0.002*[#  23]+0.002*[#  25]
    |psi|^2 = 0.710
==== e(   7) =    17.33682 eV ==== 
     psi = 0.214*[#   2]+0.214*[#   3]+0.214*[#   4]+0.007*[#  21]+0.007*[#  24]
          +0.006*[#   5]+0.006*[#   6]+0.006*[#   7]+0.006*[#   8]+0.006*[#   9]
          +0.005*[#  18]+0.005*[#  19]+0.005*[#  20]+0.003*[#  17]+0.002*[#  13]
          +0.002*[#  11]+0.002*[#  12]+0.002*[#  15]+0.002*[#  16]+0.002*[#  10]
          
    |psi|^2 = 0.714
==== e(   8) =    17.92225 eV ==== 
     psi = 0.563*[#   1]+0.029*[#   2]+0.029*[#   3]+0.029*[#   4]+0.009*[#  21]
          +0.009*[#  24]+0.007*[#  13]+0.004*[#  11]+0.004*[#  12]+0.003*[#  18]
          +0.003*[#  19]+0.003*[#  20]+0.003*[#  15]+0.003*[#  16]
    |psi|^2 = 0.700
==== e(   9) =    26.01349 eV ==== 
     psi = 0.104*[#   6]+0.104*[#   7]+0.104*[#   9]+0.063*[#   2]+0.063*[#   3]
          +0.063*[#   4]+0.026*[#   5]+0.026*[#   8]+0.024*[#  13]+0.018*[#  11]
          +0.018*[#  12]+0.014*[#  15]+0.014*[#  16]+0.008*[#  22]+0.008*[#  23]
          +0.008*[#  25]+0.008*[#  10]+0.005*[#  14]+0.003*[#  17]+0.001*[#  21]
          +0.001*[#  24]
    |psi|^2 = 0.683
==== e(  10) =    26.66319 eV ==== 
     psi = 0.103*[#   6]+0.103*[#   7]+0.103*[#   9]+0.076*[#   2]+0.076*[#   3]
          +0.076*[#   4]+0.025*[#  13]+0.017*[#  11]+0.017*[#  12]+0.012*[#  15]
          +0.012*[#  16]+0.007*[#  22]+0.007*[#  23]+0.007*[#  25]+0.004*[#  10]
          +0.004*[#   5]+0.004*[#   8]+0.002*[#  18]+0.002*[#  19]+0.002*[#  20]
          
    |psi|^2 = 0.663

 k =  -0.8333333333  0.5000000000  0.1666666667
==== e(   1) =   -19.15196 eV ==== 
     psi = 0.978*[#  17]+0.006*[#   5]+0.006*[#   8]+0.002*[#   2]+0.002*[#   3]
          +0.002*[#   4]+0.001*[#  10]
    |psi|^2 = 0.999
==== e(   2) =    -2.47889 eV ==== 
     psi = 0.310*[#  18]+0.310*[#  19]+0.310*[#  20]+0.022*[#   1]+0.011*[#   2]
          +0.011*[#   3]+0.011*[#   4]+0.003*[#   6]+0.003*[#   7]+0.003*[#   9]
          
    |psi|^2 = 0.996
==== e(   3) =    -1.93141 eV ==== 
     psi = 0.310*[#  18]+0.310*[#  19]+0.310*[#  20]+0.014*[#   2]+0.014*[#   3]
          +0.014*[#   4]+0.003*[#   5]+0.003*[#   8]+0.002*[#   6]+0.002*[#   7]
          +0.002*[#   9]
    |psi|^2 = 0.990
==== e(   4) =    -0.91273 eV ==== 
     psi = 0.320*[#  18]+0.320*[#  19]+0.320*[#  20]+0.011*[#   5]+0.011*[#   8]
          +0.004*[#   1]+0.002*[#   2]+0.002*[#   3]+0.002*[#   4]+0.002*[#  13]
          +0.001*[#  11]+0.001*[#  12]
    |psi|^2 = 0.998
==== e(   5) =    12.58489 eV ==== 
     psi = 0.133*[#   2]+0.133*[#   3]+0.133*[#   4]+0.017*[#   6]+0.017*[#   7]
          +0.017*[#   9]+0.011*[#  18]+0.011*[#  19]+0.011*[#  20]+0.009*[#  10]
          +0.006*[#  15]+0.006*[#  16]+0.005*[#   5]+0.005*[#   8]+0.004*[#  11]
          +0.004*[#  12]+0.003*[#  14]+0.003*[#  17]+0.003*[#  22]+0.003*[#  23]
          +0.003*[#  25]
    |psi|^2 = 0.536
==== e(   6) =    14.38829 eV ==== 
     psi = 0.249*[#   1]+0.100*[#   2]+0.100*[#   3]+0.100*[#   4]+0.033*[#   6]
          +0.033*[#   7]+0.033*[#   9]+0.019*[#  18]+0.019*[#  19]+0.019*[#  20]
          +0.008*[#  10]+0.005*[#  15]+0.005*[#  16]+0.004*[#  11]+0.004*[#  12]
          +0.002*[#  22]+0.002*[#  23]+0.002*[#  25]
    |psi|^2 = 0.741
==== e(   7) =    17.46090 eV ==== 
     psi = 0.216*[#   2]+0.216*[#   3]+0.216*[#   4]+0.007*[#  21]+0.007*[#  24]
          +0.006*[#   6]+0.006*[#   7]+0.006*[#   9]+0.005*[#   5]+0.005*[#   8]
          +0.005*[#  18]+0.005*[#  19]+0.005*[#  20]+0.002*[#  13]+0.003*[#  17]
          +0.002*[#  11]+0.002*[#  12]+0.002*[#  15]+0.002*[#  16]+0.002*[#  10]
          
    |psi|^2 = 0.720
==== e(   8) =    17.92349 eV ==== 
     psi = 0.524*[#   1]+0.036*[#   2]+0.036*[#   3]+0.036*[#   4]+0.009*[#  21]
          +0.009*[#  24]+0.007*[#  13]+0.004*[#  11]+0.004*[#  12]+0.003*[#  18]
          +0.003*[#  19]+0.003*[#  20]+0.003*[#  15]+0.003*[#  16]
    |psi|^2 = 0.682
==== e(   9) =    26.01801 eV ==== 
     psi = 0.104*[#   6]+0.104*[#   7]+0.104*[#   9]+0.058*[#   2]+0.058*[#   3]
          +0.058*[#   4]+0.030*[#   5]+0.030*[#   8]+0.023*[#  13]+0.017*[#  11]
          +0.017*[#  12]+0.014*[#  15]+0.014*[#  16]+0.008*[#  10]+0.008*[#  22]
          +0.008*[#  23]+0.008*[#  25]+0.006*[#  14]+0.003*[#  17]+0.001*[#  21]
          +0.001*[#  24]
    |psi|^2 = 0.678
==== e(  10) =    26.75551 eV ==== 
     psi = 0.103*[#   6]+0.103*[#   7]+0.103*[#   9]+0.073*[#   2]+0.073*[#   3]
          +0.073*[#   4]+0.024*[#  13]+0.017*[#  11]+0.017*[#  12]+0.012*[#  15]
          +0.012*[#  16]+0.007*[#  22]+0.007*[#  23]+0.007*[#  25]+0.005*[#   5]
          +0.005*[#   8]+0.004*[#  10]+0.002*[#  18]+0.002*[#  19]+0.002*[#  20]
          
    |psi|^2 = 0.654

 k =  -0.8166666667  0.5000000000  0.1833333333
==== e(   1) =   -19.16304 eV ==== 
     psi = 0.978*[#  17]+0.006*[#   5]+0.006*[#   8]+0.002*[#   2]+0.002*[#   3]
          +0.002*[#   4]+0.001*[#  10]
    |psi|^2 = 0.999
==== e(   2) =    -2.50293 eV ==== 
     psi = 0.310*[#  18]+0.310*[#  19]+0.310*[#  20]+0.026*[#   1]+0.010*[#   2]
          +0.010*[#   3]+0.010*[#   4]+0.003*[#   6]+0.003*[#   7]+0.003*[#   9]
          
    |psi|^2 = 0.996
==== e(   3) =    -1.85411 eV ==== 
     psi = 0.311*[#  18]+0.311*[#  19]+0.311*[#  20]+0.014*[#   2]+0.014*[#   3]
          +0.014*[#   4]+0.004*[#   5]+0.004*[#   8]+0.002*[#   6]+0.002*[#   7]
          +0.002*[#   9]
    |psi|^2 = 0.990
==== e(   4) =    -0.88446 eV ==== 
     psi = 0.320*[#  18]+0.320*[#  19]+0.320*[#  20]+0.012*[#   5]+0.012*[#   8]
          +0.003*[#   1]+0.002*[#   2]+0.002*[#   3]+0.002*[#   4]+0.001*[#  13]
          
    |psi|^2 = 0.998
==== e(   5) =    12.37913 eV ==== 
     psi = 0.134*[#   2]+0.134*[#   3]+0.134*[#   4]+0.015*[#   6]+0.015*[#   7]
          +0.015*[#   9]+0.011*[#  18]+0.011*[#  19]+0.011*[#  20]+0.009*[#  10]
          +0.006*[#  15]+0.006*[#  16]+0.005*[#   5]+0.005*[#   8]+0.004*[#  14]
          +0.004*[#  17]+0.004*[#  11]+0.004*[#  12]+0.003*[#  22]+0.003*[#  23]
          +0.003*[#  25]
    |psi|^2 = 0.534
==== e(   6) =    14.44919 eV ==== 
     psi = 0.289*[#   1]+0.097*[#   2]+0.097*[#   3]+0.097*[#   4]+0.033*[#   6]
          +0.033*[#   7]+0.033*[#   9]+0.019*[#  18]+0.019*[#  19]+0.019*[#  20]
          +0.008*[#  10]+0.005*[#  15]+0.005*[#  16]+0.004*[#  11]+0.004*[#  12]
          +0.002*[#  22]+0.002*[#  23]+0.002*[#  25]+0.001*[#  13]
    |psi|^2 = 0.771
==== e(   7) =    17.57271 eV ==== 
     psi = 0.218*[#   2]+0.218*[#   3]+0.218*[#   4]+0.007*[#  21]+0.007*[#  24]
          +0.005*[#   6]+0.005*[#   7]+0.005*[#   9]+0.005*[#  18]+0.005*[#  19]
          +0.005*[#  20]+0.004*[#   5]+0.004*[#   8]+0.003*[#  13]+0.003*[#  11]
          +0.003*[#  12]+0.002*[#  15]+0.002*[#  16]+0.002*[#  17]+0.001*[#  10]
          
    |psi|^2 = 0.726
==== e(   8) =    17.92418 eV ==== 
     psi = 0.485*[#   1]+0.043*[#   2]+0.043*[#   3]+0.043*[#   4]+0.009*[#  21]
          +0.009*[#  24]+0.007*[#  13]+0.005*[#  11]+0.005*[#  12]+0.003*[#  18]
          +0.003*[#  19]+0.003*[#  20]+0.003*[#  15]+0.003*[#  16]
    |psi|^2 = 0.667
==== e(   9) =    26.04225 eV ==== 
     psi = 0.105*[#   6]+0.105*[#   7]+0.105*[#   9]+0.054*[#   2]+0.054*[#   3]
          +0.054*[#   4]+0.033*[#   5]+0.033*[#   8]+0.022*[#  13]+0.017*[#  11]
          +0.017*[#  12]+0.014*[#  15]+0.014*[#  16]+0.009*[#  10]+0.008*[#  22]
          +0.008*[#  23]+0.008*[#  25]+0.007*[#  14]+0.003*[#  17]+0.001*[#  21]
          +0.001*[#  24]
    |psi|^2 = 0.674
==== e(  10) =    26.85517 eV ==== 
     psi = 0.103*[#   6]+0.103*[#   7]+0.103*[#   9]+0.070*[#   2]+0.070*[#   3]
          +0.070*[#   4]+0.023*[#  13]+0.016*[#  11]+0.016*[#  12]+0.011*[#  15]
          +0.011*[#  16]+0.007*[#  22]+0.007*[#  23]+0.007*[#  25]+0.005*[#   5]
          +0.005*[#   8]+0.004*[#  10]+0.002*[#  18]+0.002*[#  19]+0.002*[#  20]
          
    |psi|^2 = 0.644

 k =  -0.8000000000  0.5000000000  0.2000000000
==== e(   1) =   -19.17459 eV ==== 
     psi = 0.978*[#  17]+0.005*[#   5]+0.005*[#   8]+0.002*[#   2]+0.002*[#   3]
          +0.002*[#   4]+0.001*[#  10]
    |psi|^2 = 0.999
==== e(   2) =    -2.52705 eV ==== 
     psi = 0.310*[#  18]+0.310*[#  19]+0.310*[#  20]+0.029*[#   1]+0.009*[#   2]
          +0.009*[#   3]+0.009*[#   4]+0.003*[#   6]+0.003*[#   7]+0.003*[#   9]
          
    |psi|^2 = 0.997
==== e(   3) =    -1.77109 eV ==== 
     psi = 0.311*[#  18]+0.311*[#  19]+0.311*[#  20]+0.013*[#   2]+0.013*[#   3]
          +0.013*[#   4]+0.005*[#   5]+0.005*[#   8]+0.002*[#   6]+0.002*[#   7]
          +0.002*[#   9]
    |psi|^2 = 0.990
==== e(   4) =    -0.85523 eV ==== 
     psi = 0.320*[#  18]+0.320*[#  19]+0.320*[#  20]+0.012*[#   5]+0.012*[#   8]
          +0.002*[#   2]+0.002*[#   3]+0.002*[#   4]+0.002*[#   1]+0.001*[#  13]
          
    |psi|^2 = 0.998
==== e(   5) =    12.17462 eV ==== 
     psi = 0.136*[#   2]+0.136*[#   3]+0.136*[#   4]+0.014*[#   6]+0.014*[#   7]
          +0.014*[#   9]+0.010*[#  18]+0.010*[#  19]+0.010*[#  20]+0.009*[#  10]
          +0.006*[#  15]+0.006*[#  16]+0.005*[#   5]+0.005*[#   8]+0.004*[#  14]
          +0.004*[#  17]+0.004*[#  11]+0.004*[#  12]+0.003*[#  22]+0.003*[#  23]
          +0.003*[#  25]
    |psi|^2 = 0.533
==== e(   6) =    14.51481 eV ==== 
     psi = 0.328*[#   1]+0.094*[#   2]+0.094*[#   3]+0.094*[#   4]+0.033*[#   6]
          +0.033*[#   7]+0.033*[#   9]+0.020*[#  18]+0.020*[#  19]+0.020*[#  20]
          +0.007*[#  10]+0.005*[#  15]+0.005*[#  16]+0.003*[#  11]+0.003*[#  12]
          +0.002*[#  22]+0.002*[#  23]+0.002*[#  25]+0.001*[#  13]
    |psi|^2 = 0.799
==== e(   7) =    17.67103 eV ==== 
     psi = 0.221*[#   2]+0.221*[#   3]+0.221*[#   4]+0.008*[#  21]+0.008*[#  24]
          +0.005*[#  18]+0.005*[#  19]+0.005*[#  20]+0.004*[#   6]+0.004*[#   7]
          +0.004*[#   9]+0.004*[#  13]+0.003*[#   5]+0.003*[#   8]+0.003*[#  11]
          +0.003*[#  12]+0.002*[#  15]+0.002*[#  16]+0.002*[#  17]+0.001*[#  10]
          
    |psi|^2 = 0.732
==== e(   8) =    17.92462 eV ==== 
     psi = 0.446*[#   1]+0.052*[#   2]+0.052*[#   3]+0.052*[#   4]+0.009*[#  21]
          +0.009*[#  24]+0.008*[#  13]+0.005*[#  11]+0.005*[#  12]+0.003*[#  18]
          +0.003*[#  19]+0.003*[#  20]+0.003*[#  15]+0.003*[#  16]
    |psi|^2 = 0.654
==== e(   9) =    26.08884 eV ==== 
     psi = 0.106*[#   6]+0.106*[#   7]+0.106*[#   9]+0.049*[#   2]+0.049*[#   3]
          +0.049*[#   4]+0.037*[#   5]+0.037*[#   8]+0.020*[#  13]+0.016*[#  11]
          +0.016*[#  12]+0.014*[#  15]+0.014*[#  16]+0.010*[#  10]+0.009*[#  14]
          +0.007*[#  22]+0.007*[#  23]+0.007*[#  25]+0.004*[#  17]+0.001*[#  21]
          +0.001*[#  24]
    |psi|^2 = 0.669
==== e(  10) =    26.96147 eV ==== 
     psi = 0.104*[#   6]+0.104*[#   7]+0.104*[#   9]+0.067*[#   2]+0.067*[#   3]
          +0.067*[#   4]+0.021*[#  13]+0.015*[#  11]+0.015*[#  12]+0.011*[#  15]
          +0.011*[#  16]+0.007*[#  22]+0.007*[#  23]+0.007*[#  25]+0.006*[#   5]
          +0.006*[#   8]+0.004*[#  10]+0.002*[#  18]+0.002*[#  19]+0.002*[#  20]
          
    |psi|^2 = 0.633

 k =  -0.7833333333  0.5000000000  0.2166666667
==== e(   1) =   -19.18650 eV ==== 
     psi = 0.978*[#  17]+0.005*[#   5]+0.005*[#   8]+0.002*[#   2]+0.002*[#   3]
          +0.002*[#   4]+0.001*[#  10]
    |psi|^2 = 0.999
==== e(   2) =    -2.55121 eV ==== 
     psi = 0.310*[#  18]+0.310*[#  19]+0.310*[#  20]+0.032*[#   1]+0.008*[#   2]
          +0.008*[#   3]+0.008*[#   4]+0.003*[#   6]+0.003*[#   7]+0.003*[#   9]
          
    |psi|^2 = 0.997
==== e(   3) =    -1.68420 eV ==== 
     psi = 0.311*[#  18]+0.311*[#  19]+0.311*[#  20]+0.012*[#   2]+0.012*[#   3]
          +0.012*[#   4]+0.005*[#   5]+0.005*[#   8]+0.002*[#   6]+0.002*[#   7]
          +0.002*[#   9]
    |psi|^2 = 0.991
==== e(   4) =    -0.82583 eV ==== 
     psi = 0.320*[#  18]+0.320*[#  19]+0.320*[#  20]+0.012*[#   5]+0.012*[#   8]
          +0.002*[#   2]+0.002*[#   3]+0.002*[#   4]+0.002*[#   1]+0.001*[#  13]
          
    |psi|^2 = 0.998
==== e(   5) =    11.97224 eV ==== 
     psi = 0.137*[#   2]+0.137*[#   3]+0.137*[#   4]+0.012*[#   6]+0.012*[#   7]
          +0.012*[#   9]+0.010*[#  18]+0.010*[#  19]+0.010*[#  20]+0.009*[#  10]
          +0.006*[#  15]+0.006*[#  16]+0.005*[#  14]+0.005*[#   5]+0.005*[#   8]
          +0.004*[#  17]+0.004*[#  11]+0.004*[#  12]+0.003*[#  22]+0.003*[#  23]
          +0.003*[#  25]
    |psi|^2 = 0.531
==== e(   6) =    14.58455 eV ==== 
     psi = 0.366*[#   1]+0.090*[#   2]+0.090*[#   3]+0.090*[#   4]+0.033*[#   6]
          +0.033*[#   7]+0.033*[#   9]+0.020*[#  18]+0.020*[#  19]+0.020*[#  20]
          +0.006*[#  10]+0.004*[#  15]+0.004*[#  16]+0.003*[#  11]+0.003*[#  12]
          +0.002*[#  22]+0.002*[#  23]+0.002*[#  25]+0.001*[#  13]
    |psi|^2 = 0.824
==== e(   7) =    17.75467 eV ==== 
     psi = 0.223*[#   2]+0.223*[#   3]+0.223*[#   4]+0.008*[#  21]+0.008*[#  24]
          +0.005*[#  13]+0.005*[#  18]+0.005*[#  19]+0.005*[#  20]+0.004*[#   6]
          +0.004*[#   7]+0.004*[#   9]+0.003*[#  11]+0.003*[#  12]+0.003*[#   5]
          +0.003*[#   8]+0.003*[#  15]+0.003*[#  16]+0.001*[#  17]+0.001*[#  10]
          
    |psi|^2 = 0.738
==== e(   8) =    17.92457 eV ==== 
     psi = 0.408*[#   1]+0.061*[#   2]+0.061*[#   3]+0.061*[#   4]+0.010*[#  21]
          +0.010*[#  24]+0.008*[#  13]+0.005*[#  11]+0.005*[#  12]+0.003*[#  15]
          +0.003*[#  16]+0.003*[#  18]+0.003*[#  19]+0.003*[#  20]
    |psi|^2 = 0.644
==== e(   9) =    26.15973 eV ==== 
     psi = 0.107*[#   6]+0.107*[#   7]+0.107*[#   9]+0.045*[#   2]+0.045*[#   3]
          +0.045*[#   4]+0.040*[#   5]+0.040*[#   8]+0.019*[#  13]+0.016*[#  11]
          +0.016*[#  12]+0.014*[#  15]+0.014*[#  16]+0.010*[#  10]+0.010*[#  14]
          +0.007*[#  22]+0.007*[#  23]+0.007*[#  25]+0.004*[#  17]+0.001*[#  21]
          +0.001*[#  24]
    |psi|^2 = 0.664
==== e(  10) =    27.07347 eV ==== 
     psi = 0.104*[#   6]+0.104*[#   7]+0.104*[#   9]+0.064*[#   2]+0.064*[#   3]
          +0.064*[#   4]+0.020*[#  13]+0.014*[#  11]+0.014*[#  12]+0.010*[#  15]
          +0.010*[#  16]+0.007*[#   5]+0.007*[#   8]+0.006*[#  22]+0.006*[#  23]
          +0.006*[#  25]+0.004*[#  10]+0.002*[#  18]+0.002*[#  19]+0.002*[#  20]
          
    |psi|^2 = 0.622

 k =  -0.7666666667  0.5000000000  0.2333333333
==== e(   1) =   -19.19862 eV ==== 
     psi = 0.978*[#  17]+0.004*[#   5]+0.004*[#   8]+0.002*[#   2]+0.002*[#   3]
          +0.002*[#   4]+0.002*[#  10]
    |psi|^2 = 0.999
==== e(   2) =    -2.57496 eV ==== 
     psi = 0.310*[#  18]+0.310*[#  19]+0.310*[#  20]+0.034*[#   1]+0.007*[#   2]
          +0.007*[#   3]+0.007*[#   4]+0.004*[#   6]+0.004*[#   7]+0.004*[#   9]
          
    |psi|^2 = 0.998
==== e(   3) =    -1.59331 eV ==== 
     psi = 0.312*[#  18]+0.312*[#  19]+0.312*[#  20]+0.012*[#   2]+0.012*[#   3]
          +0.012*[#   4]+0.006*[#   5]+0.006*[#   8]+0.002*[#   6]+0.002*[#   7]
          +0.002*[#   9]
    |psi|^2 = 0.991
==== e(   4) =    -0.79646 eV ==== 
     psi = 0.320*[#  18]+0.320*[#  19]+0.320*[#  20]+0.013*[#   5]+0.013*[#   8]
          +0.002*[#   2]+0.002*[#   3]+0.002*[#   4]+0.001*[#   1]+0.001*[#  13]
          
    |psi|^2 = 0.998
==== e(   5) =    11.77326 eV ==== 
     psi = 0.138*[#   2]+0.138*[#   3]+0.138*[#   4]+0.011*[#   6]+0.011*[#   7]
          +0.011*[#   9]+0.009*[#  10]+0.009*[#  18]+0.009*[#  19]+0.009*[#  20]
          +0.006*[#  15]+0.006*[#  16]+0.006*[#  14]+0.005*[#   5]+0.005*[#   8]
          +0.004*[#  17]+0.004*[#  11]+0.004*[#  12]+0.003*[#  22]+0.003*[#  23]
          +0.003*[#  25]
    |psi|^2 = 0.529
==== e(   6) =    14.65807 eV ==== 
     psi = 0.403*[#   1]+0.087*[#   2]+0.087*[#   3]+0.087*[#   4]+0.032*[#   6]
          +0.032*[#   7]+0.032*[#   9]+0.020*[#  18]+0.020*[#  19]+0.020*[#  20]
          +0.006*[#  10]+0.004*[#  15]+0.004*[#  16]+0.003*[#  11]+0.003*[#  12]
          +0.002*[#  22]+0.002*[#  23]+0.002*[#  25]+0.001*[#  13]
    |psi|^2 = 0.847
==== e(   7) =    17.82342 eV ==== 
     psi = 0.225*[#   2]+0.225*[#   3]+0.225*[#   4]+0.009*[#  21]+0.009*[#  24]
          +0.006*[#  13]+0.004*[#  18]+0.004*[#  19]+0.004*[#  20]+0.004*[#  11]
          +0.004*[#  12]+0.003*[#   6]+0.003*[#   7]+0.003*[#   9]+0.003*[#  15]
          +0.003*[#  16]+0.002*[#   5]+0.002*[#   8]+0.001*[#  17]
    |psi|^2 = 0.744
==== e(   8) =    17.92402 eV ==== 
     psi = 0.371*[#   1]+0.070*[#   2]+0.070*[#   3]+0.070*[#   4]+0.010*[#  21]
          +0.010*[#  24]+0.008*[#  13]+0.005*[#  11]+0.005*[#  12]+0.003*[#  15]
          +0.003*[#  16]+0.003*[#  18]+0.003*[#  19]+0.003*[#  20]
    |psi|^2 = 0.638
==== e(   9) =    26.25619 eV ==== 
     psi = 0.108*[#   6]+0.108*[#   7]+0.108*[#   9]+0.042*[#   5]+0.042*[#   8]
          +0.041*[#   2]+0.041*[#   3]+0.041*[#   4]+0.018*[#  13]+0.015*[#  11]
          +0.015*[#  12]+0.014*[#  15]+0.014*[#  16]+0.011*[#  14]+0.011*[#  10]
          +0.007*[#  22]+0.007*[#  23]+0.007*[#  25]+0.004*[#  17]+0.001*[#  21]
          +0.001*[#  24]
    |psi|^2 = 0.660
==== e(  10) =    27.19009 eV ==== 
     psi = 0.104*[#   6]+0.104*[#   7]+0.104*[#   9]+0.061*[#   2]+0.061*[#   3]
          +0.061*[#   4]+0.019*[#  13]+0.013*[#  11]+0.013*[#  12]+0.010*[#  15]
          +0.010*[#  16]+0.008*[#   5]+0.008*[#   8]+0.006*[#  22]+0.006*[#  23]
          +0.006*[#  25]+0.004*[#  10]+0.002*[#  18]+0.002*[#  19]+0.002*[#  20]
          
    |psi|^2 = 0.609

 k =  -0.7500000000  0.5000000000  0.2500000000
==== e(   1) =   -19.21085 eV ==== 
     psi = 0.978*[#  17]+0.004*[#   5]+0.004*[#   8]+0.002*[#   2]+0.002*[#   3]
          +0.002*[#   4]+0.002*[#  10]+0.001*[#  15]+0.001*[#  16]
    |psi|^2 = 0.999
==== e(   2) =    -2.59848 eV ==== 
     psi = 0.310*[#  18]+0.310*[#  19]+0.310*[#  20]+0.037*[#   1]+0.006*[#   2]
          +0.006*[#   3]+0.006*[#   4]+0.004*[#   6]+0.004*[#   7]+0.004*[#   9]
          
    |psi|^2 = 0.998
==== e(   3) =    -1.50085 eV ==== 
     psi = 0.312*[#  18]+0.312*[#  19]+0.312*[#  20]+0.011*[#   2]+0.011*[#   3]
          +0.011*[#   4]+0.007*[#   5]+0.007*[#   8]+0.002*[#   6]+0.002*[#   7]
          +0.002*[#   9]
    |psi|^2 = 0.991
==== e(   4) =    -0.76755 eV ==== 
     psi = 0.320*[#  18]+0.320*[#  19]+0.320*[#  20]+0.013*[#   5]+0.013*[#   8]
          +0.002*[#   2]+0.002*[#   3]+0.002*[#   4]
    |psi|^2 = 0.998
==== e(   5) =    11.57834 eV ==== 
     psi = 0.139*[#   2]+0.139*[#   3]+0.139*[#   4]+0.009*[#   6]+0.009*[#   7]
          +0.009*[#   9]+0.009*[#  10]+0.008*[#  18]+0.008*[#  19]+0.008*[#  20]
          +0.006*[#  14]+0.006*[#  15]+0.006*[#  16]+0.005*[#   5]+0.005*[#   8]
          +0.005*[#  17]+0.003*[#  11]+0.003*[#  12]+0.003*[#  22]+0.003*[#  23]
          +0.003*[#  25]
    |psi|^2 = 0.527
==== e(   6) =    14.73453 eV ==== 
     psi = 0.438*[#   1]+0.082*[#   2]+0.082*[#   3]+0.082*[#   4]+0.032*[#   6]
          +0.032*[#   7]+0.032*[#   9]+0.020*[#  18]+0.020*[#  19]+0.020*[#  20]
          +0.005*[#  10]+0.004*[#  15]+0.004*[#  16]+0.003*[#  11]+0.003*[#  12]
          +0.002*[#  22]+0.002*[#  23]+0.002*[#  25]+0.001*[#  13]
    |psi|^2 = 0.867
==== e(   7) =    17.87719 eV ==== 
     psi = 0.227*[#   2]+0.227*[#   3]+0.227*[#   4]+0.009*[#  21]+0.009*[#  24]
          +0.007*[#  13]+0.004*[#  11]+0.004*[#  12]+0.004*[#  18]+0.004*[#  19]
          +0.004*[#  20]+0.003*[#  15]+0.003*[#  16]+0.003*[#   6]+0.003*[#   7]
          +0.003*[#   9]+0.002*[#   5]+0.002*[#   8]
    |psi|^2 = 0.750
==== e(   8) =    17.92276 eV ==== 
     psi = 0.336*[#   1]+0.081*[#   2]+0.081*[#   3]+0.081*[#   4]+0.010*[#  21]
          +0.010*[#  24]+0.009*[#  13]+0.006*[#  11]+0.006*[#  12]+0.003*[#  15]
          +0.003*[#  16]+0.003*[#  18]+0.003*[#  19]+0.003*[#  20]
    |psi|^2 = 0.636
==== e(   9) =    26.37874 eV ==== 
     psi = 0.109*[#   6]+0.109*[#   7]+0.109*[#   9]+0.045*[#   5]+0.045*[#   8]
          +0.037*[#   2]+0.037*[#   3]+0.037*[#   4]+0.016*[#  13]+0.015*[#  11]
          +0.015*[#  12]+0.014*[#  15]+0.014*[#  16]+0.013*[#  14]+0.012*[#  10]
          +0.007*[#  22]+0.007*[#  23]+0.007*[#  25]+0.004*[#  17]+0.001*[#  21]
          +0.001*[#  24]
    |psi|^2 = 0.655
==== e(  10) =    27.31007 eV ==== 
     psi = 0.104*[#   6]+0.104*[#   7]+0.104*[#   9]+0.057*[#   2]+0.057*[#   3]
          +0.057*[#   4]+0.017*[#  13]+0.012*[#  11]+0.012*[#  12]+0.009*[#   5]
          +0.009*[#   8]+0.009*[#  15]+0.009*[#  16]+0.006*[#  22]+0.006*[#  23]
          +0.006*[#  25]+0.004*[#  10]+0.002*[#  18]+0.002*[#  19]+0.002*[#  20]
          +0.001*[#   1]
    |psi|^2 = 0.595

 k =  -0.7333333333  0.5000000000  0.2666666667
==== e(   1) =   -19.22302 eV ==== 
     psi = 0.978*[#  17]+0.003*[#   5]+0.003*[#   8]+0.003*[#   2]+0.003*[#   3]
          +0.003*[#   4]+0.002*[#  10]+0.001*[#  15]+0.001*[#  16]
    |psi|^2 = 0.999
==== e(   2) =    -2.62130 eV ==== 
     psi = 0.310*[#  18]+0.310*[#  19]+0.310*[#  20]+0.040*[#   1]+0.005*[#   2]
          +0.005*[#   3]+0.005*[#   4]+0.004*[#   6]+0.004*[#   7]+0.004*[#   9]
          
    |psi|^2 = 0.998
==== e(   3) =    -1.40651 eV ==== 
     psi = 0.313*[#  18]+0.313*[#  19]+0.313*[#  20]+0.010*[#   2]+0.010*[#   3]
          +0.010*[#   4]+0.008*[#   5]+0.008*[#   8]+0.002*[#   6]+0.002*[#   7]
          +0.002*[#   9]
    |psi|^2 = 0.992
==== e(   4) =    -0.73929 eV ==== 
     psi = 0.320*[#  18]+0.320*[#  19]+0.320*[#  20]+0.013*[#   5]+0.013*[#   8]
          +0.002*[#   2]+0.002*[#   3]+0.002*[#   4]
    |psi|^2 = 0.998
==== e(   5) =    11.38882 eV ==== 
     psi = 0.140*[#   2]+0.140*[#   3]+0.140*[#   4]+0.009*[#  10]+0.008*[#   6]
          +0.008*[#   7]+0.008*[#   9]+0.008*[#  18]+0.008*[#  19]+0.008*[#  20]
          +0.007*[#  14]+0.006*[#  15]+0.006*[#  16]+0.005*[#  17]+0.004*[#   5]
          +0.004*[#   8]+0.003*[#  11]+0.003*[#  12]+0.003*[#  22]+0.003*[#  23]
          +0.003*[#  25]
    |psi|^2 = 0.525
==== e(   6) =    14.81349 eV ==== 
     psi = 0.472*[#   1]+0.077*[#   2]+0.077*[#   3]+0.077*[#   4]+0.032*[#   6]
          +0.032*[#   7]+0.032*[#   9]+0.020*[#  18]+0.020*[#  19]+0.020*[#  20]
          +0.004*[#  10]+0.003*[#  15]+0.003*[#  16]+0.003*[#  11]+0.003*[#  12]
          +0.002*[#  22]+0.002*[#  23]+0.002*[#  25]+0.001*[#  13]
    |psi|^2 = 0.884
==== e(   7) =    17.91692 eV ==== 
     psi = 0.229*[#   2]+0.229*[#   3]+0.229*[#   4]+0.009*[#  21]+0.009*[#  24]
          +0.008*[#  13]+0.005*[#  11]+0.005*[#  12]+0.004*[#  18]+0.004*[#  19]
          +0.004*[#  20]+0.003*[#  15]+0.003*[#  16]+0.002*[#   6]+0.002*[#   7]
          +0.002*[#   9]+0.001*[#   5]+0.001*[#   8]
    |psi|^2 = 0.755
==== e(   8) =    17.92076 eV ==== 
     psi = 0.303*[#   1]+0.092*[#   2]+0.092*[#   3]+0.092*[#   4]+0.010*[#  21]
          +0.010*[#  24]+0.009*[#  13]+0.006*[#  11]+0.006*[#  12]+0.004*[#  15]
          +0.004*[#  16]+0.003*[#  18]+0.003*[#  19]+0.003*[#  20]
    |psi|^2 = 0.638
==== e(   9) =    26.52726 eV ==== 
     psi = 0.109*[#   6]+0.109*[#   7]+0.109*[#   9]+0.048*[#   5]+0.048*[#   8]
          +0.034*[#   2]+0.034*[#   3]+0.034*[#   4]+0.015*[#  13]+0.014*[#  14]
          +0.014*[#  11]+0.014*[#  12]+0.013*[#  15]+0.013*[#  16]+0.013*[#  10]
          +0.007*[#  22]+0.007*[#  23]+0.007*[#  25]+0.005*[#  17]
    |psi|^2 = 0.651
==== e(  10) =    27.43192 eV ==== 
     psi = 0.105*[#   6]+0.105*[#   7]+0.105*[#   9]+0.053*[#   2]+0.053*[#   3]
          +0.053*[#   4]+0.015*[#  13]+0.011*[#  11]+0.011*[#  12]+0.010*[#   5]
          +0.010*[#   8]+0.008*[#  15]+0.008*[#  16]+0.005*[#  22]+0.005*[#  23]
          +0.005*[#  25]+0.004*[#  10]+0.002*[#  18]+0.002*[#  19]+0.002*[#  20]
          +0.001*[#   1]
    |psi|^2 = 0.580

 k =  -0.7166666667  0.5000000000  0.2833333333
==== e(   1) =   -19.23504 eV ==== 
     psi = 0.978*[#  17]+0.003*[#   5]+0.003*[#   8]+0.003*[#   2]+0.003*[#   3]
          +0.003*[#   4]+0.002*[#  10]+0.001*[#  15]+0.001*[#  16]
    |psi|^2 = 0.999
==== e(   2) =    -2.64335 eV ==== 
     psi = 0.310*[#  18]+0.310*[#  19]+0.310*[#  20]+0.042*[#   1]+0.004*[#   2]
          +0.004*[#   3]+0.004*[#   4]+0.004*[#   6]+0.004*[#   7]+0.004*[#   9]
          
    |psi|^2 = 0.999
==== e(   3) =    -1.31215 eV ==== 
     psi = 0.314*[#  18]+0.314*[#  19]+0.314*[#  20]+0.009*[#   2]+0.009*[#   3]
          +0.009*[#   4]+0.009*[#   5]+0.009*[#   8]+0.002*[#   6]+0.002*[#   7]
          +0.002*[#   9]
    |psi|^2 = 0.992
==== e(   4) =    -0.71221 eV ==== 
     psi = 0.320*[#  18]+0.320*[#  19]+0.320*[#  20]+0.014*[#   5]+0.014*[#   8]
          +0.002*[#   2]+0.002*[#   3]+0.002*[#   4]
    |psi|^2 = 0.998
==== e(   5) =    11.20545 eV ==== 
     psi = 0.142*[#   2]+0.142*[#   3]+0.142*[#   4]+0.009*[#  10]+0.007*[#  14]
          +0.007*[#  18]+0.007*[#  19]+0.007*[#  20]+0.007*[#   6]+0.007*[#   7]
          +0.007*[#   9]+0.006*[#  15]+0.006*[#  16]+0.005*[#  17]+0.004*[#   5]
          +0.004*[#   8]+0.003*[#  11]+0.003*[#  12]+0.003*[#  22]+0.003*[#  23]
          +0.003*[#  25]
    |psi|^2 = 0.523
==== e(   6) =    14.89413 eV ==== 
     psi = 0.505*[#   1]+0.072*[#   2]+0.072*[#   3]+0.072*[#   4]+0.032*[#   6]
          +0.032*[#   7]+0.032*[#   9]+0.020*[#  18]+0.020*[#  19]+0.020*[#  20]
          +0.004*[#  10]+0.003*[#  15]+0.003*[#  16]+0.002*[#  11]+0.002*[#  12]
          +0.001*[#  22]+0.001*[#  23]+0.001*[#  25]+0.001*[#  13]
    |psi|^2 = 0.898
==== e(   7) =    17.91792 eV ==== 
     psi = 0.271*[#   1]+0.104*[#   2]+0.104*[#   3]+0.104*[#   4]+0.010*[#  13]
          +0.010*[#  21]+0.010*[#  24]+0.006*[#  11]+0.006*[#  12]+0.004*[#  15]
          +0.004*[#  16]+0.003*[#  18]+0.003*[#  19]+0.003*[#  20]
    |psi|^2 = 0.642
==== e(   8) =    17.94363 eV ==== 
     psi = 0.231*[#   2]+0.231*[#   3]+0.231*[#   4]+0.010*[#  21]+0.010*[#  24]
          +0.009*[#  13]+0.006*[#  11]+0.006*[#  12]+0.004*[#  15]+0.004*[#  16]
          +0.003*[#  18]+0.003*[#  19]+0.003*[#  20]+0.002*[#   6]+0.002*[#   7]
          +0.002*[#   9]
    |psi|^2 = 0.760
==== e(   9) =    26.70099 eV ==== 
     psi = 0.110*[#   6]+0.110*[#   7]+0.110*[#   9]+0.050*[#   5]+0.050*[#   8]
          +0.031*[#   2]+0.031*[#   3]+0.031*[#   4]+0.016*[#  14]+0.014*[#  13]
          +0.013*[#  11]+0.013*[#  12]+0.013*[#  15]+0.013*[#  16]+0.013*[#  10]
          +0.006*[#  22]+0.006*[#  23]+0.006*[#  25]+0.005*[#  17]
    |psi|^2 = 0.648
==== e(  10) =    27.55387 eV ==== 
     psi = 0.105*[#   6]+0.105*[#   7]+0.105*[#   9]+0.050*[#   2]+0.050*[#   3]
          +0.050*[#   4]+0.014*[#  13]+0.011*[#   5]+0.011*[#   8]+0.010*[#  11]
          +0.010*[#  12]+0.008*[#  15]+0.008*[#  16]+0.005*[#  22]+0.005*[#  23]
          +0.005*[#  25]+0.004*[#  10]+0.002*[#   1]+0.002*[#  18]+0.002*[#  19]
          +0.002*[#  20]
    |psi|^2 = 0.564

 k =  -0.7000000000  0.5000000000  0.3000000000
==== e(   1) =   -19.24674 eV ==== 
     psi = 0.979*[#  17]+0.003*[#   2]+0.003*[#   3]+0.003*[#   4]+0.003*[#   5]
          +0.003*[#   8]+0.002*[#  10]+0.001*[#  15]+0.001*[#  16]
    |psi|^2 = 0.999
==== e(   2) =    -2.66450 eV ==== 
     psi = 0.310*[#  18]+0.310*[#  19]+0.310*[#  20]+0.044*[#   1]+0.004*[#   6]
          +0.004*[#   7]+0.004*[#   9]+0.004*[#   2]+0.004*[#   3]+0.004*[#   4]
          
    |psi|^2 = 0.999
==== e(   3) =    -1.21775 eV ==== 
     psi = 0.314*[#  18]+0.314*[#  19]+0.314*[#  20]+0.009*[#   5]+0.009*[#   8]
          +0.008*[#   2]+0.008*[#   3]+0.008*[#   4]+0.002*[#   6]+0.002*[#   7]
          +0.002*[#   9]
    |psi|^2 = 0.993
==== e(   4) =    -0.68594 eV ==== 
     psi = 0.320*[#  18]+0.320*[#  19]+0.320*[#  20]+0.014*[#   5]+0.014*[#   8]
          +0.002*[#   2]+0.002*[#   3]+0.002*[#   4]
    |psi|^2 = 0.998
==== e(   5) =    11.02951 eV ==== 
     psi = 0.143*[#   2]+0.143*[#   3]+0.143*[#   4]+0.009*[#  10]+0.008*[#  14]
          +0.006*[#  18]+0.006*[#  19]+0.006*[#  20]+0.006*[#   6]+0.006*[#   7]
          +0.006*[#   9]+0.006*[#  15]+0.006*[#  16]+0.005*[#  17]+0.004*[#   5]
          +0.004*[#   8]+0.003*[#  11]+0.003*[#  12]+0.003*[#  22]+0.003*[#  23]
          +0.003*[#  25]
    |psi|^2 = 0.521
==== e(   6) =    14.97564 eV ==== 
     psi = 0.537*[#   1]+0.066*[#   2]+0.066*[#   3]+0.066*[#   4]+0.031*[#   6]
          +0.031*[#   7]+0.031*[#   9]+0.020*[#  18]+0.020*[#  19]+0.020*[#  20]
          +0.003*[#  10]+0.003*[#  15]+0.003*[#  16]+0.002*[#  11]+0.002*[#  12]
          +0.001*[#  13]+0.001*[#  22]+0.001*[#  23]+0.001*[#  25]
    |psi|^2 = 0.910
==== e(   7) =    17.91422 eV ==== 
     psi = 0.241*[#   1]+0.116*[#   2]+0.116*[#   3]+0.116*[#   4]+0.010*[#  13]
          +0.010*[#  21]+0.010*[#  24]+0.007*[#  11]+0.007*[#  12]+0.004*[#  15]
          +0.004*[#  16]+0.002*[#  18]+0.002*[#  19]+0.002*[#  20]
    |psi|^2 = 0.650
==== e(   8) =    17.95895 eV ==== 
     psi = 0.232*[#   2]+0.232*[#   3]+0.232*[#   4]+0.010*[#  21]+0.010*[#  24]
          +0.010*[#  13]+0.006*[#  11]+0.006*[#  12]+0.004*[#  15]+0.004*[#  16]
          +0.003*[#  18]+0.003*[#  19]+0.003*[#  20]+0.001*[#   6]+0.001*[#   7]
          +0.001*[#   9]+0.001*[#  22]+0.001*[#  23]+0.001*[#  25]
    |psi|^2 = 0.764
==== e(   9) =    26.89865 eV ==== 
     psi = 0.110*[#   6]+0.110*[#   7]+0.110*[#   9]+0.052*[#   5]+0.052*[#   8]
          +0.028*[#   2]+0.028*[#   3]+0.028*[#   4]+0.017*[#  14]+0.014*[#  10]
          +0.013*[#  15]+0.013*[#  16]+0.013*[#  11]+0.013*[#  12]+0.012*[#  13]
          +0.006*[#  22]+0.006*[#  23]+0.006*[#  25]+0.005*[#  17]
    |psi|^2 = 0.644
==== e(  10) =    27.67389 eV ==== 
     psi = 0.105*[#   6]+0.105*[#   7]+0.105*[#   9]+0.046*[#   2]+0.046*[#   3]
          +0.046*[#   4]+0.012*[#  13]+0.011*[#   5]+0.011*[#   8]+0.009*[#  11]
          +0.009*[#  12]+0.007*[#  15]+0.007*[#  16]+0.004*[#  22]+0.004*[#  23]
          +0.004*[#  25]+0.004*[#  10]+0.002*[#   1]+0.002*[#  18]+0.002*[#  19]
          +0.002*[#  20]
    |psi|^2 = 0.546

 k =  -0.6833333333  0.5000000000  0.3166666667
==== e(   1) =   -19.25800 eV ==== 
     psi = 0.979*[#  17]+0.003*[#   2]+0.003*[#   3]+0.003*[#   4]+0.002*[#   5]
          +0.002*[#   8]+0.002*[#  10]+0.001*[#  15]+0.001*[#  16]
    |psi|^2 = 0.999
==== e(   2) =    -2.68425 eV ==== 
     psi = 0.310*[#  18]+0.310*[#  19]+0.310*[#  20]+0.046*[#   1]+0.004*[#   6]
          +0.004*[#   7]+0.004*[#   9]+0.003*[#   2]+0.003*[#   3]+0.003*[#   4]
          
    |psi|^2 = 0.999
==== e(   3) =    -1.12480 eV ==== 
     psi = 0.315*[#  18]+0.315*[#  19]+0.315*[#  20]+0.010*[#   5]+0.010*[#   8]
          +0.007*[#   2]+0.007*[#   3]+0.007*[#   4]+0.002*[#   6]+0.002*[#   7]
          +0.002*[#   9]
    |psi|^2 = 0.994
==== e(   4) =    -0.66101 eV ==== 
     psi = 0.320*[#  18]+0.320*[#  19]+0.320*[#  20]+0.014*[#   5]+0.014*[#   8]
          +0.002*[#   2]+0.002*[#   3]+0.002*[#   4]
    |psi|^2 = 0.998
==== e(   5) =    10.86195 eV ==== 
     psi = 0.144*[#   2]+0.144*[#   3]+0.144*[#   4]+0.009*[#  10]+0.008*[#  14]
          +0.006*[#  18]+0.006*[#  19]+0.006*[#  20]+0.006*[#  15]+0.006*[#  16]
          +0.006*[#  17]+0.005*[#   6]+0.005*[#   7]+0.005*[#   9]+0.003*[#   5]
          +0.003*[#   8]+0.003*[#  11]+0.003*[#  12]+0.003*[#  22]+0.003*[#  23]
          +0.003*[#  25]
    |psi|^2 = 0.520
==== e(   6) =    15.05737 eV ==== 
     psi = 0.567*[#   1]+0.060*[#   2]+0.060*[#   3]+0.060*[#   4]+0.031*[#   6]
          +0.031*[#   7]+0.031*[#   9]+0.021*[#  18]+0.021*[#  19]+0.021*[#  20]
          +0.003*[#  10]+0.002*[#  15]+0.002*[#  16]+0.002*[#  11]+0.002*[#  12]
          +0.001*[#  13]+0.001*[#  22]+0.001*[#  23]+0.001*[#  25]
    |psi|^2 = 0.920
==== e(   7) =    17.90968 eV ==== 
     psi = 0.212*[#   1]+0.128*[#   2]+0.128*[#   3]+0.128*[#   4]+0.011*[#  13]
          +0.010*[#  21]+0.010*[#  24]+0.007*[#  11]+0.007*[#  12]+0.004*[#  15]
          +0.004*[#  16]+0.002*[#  18]+0.002*[#  19]+0.002*[#  20]+0.001*[#  22]
          +0.001*[#  23]+0.001*[#  25]
    |psi|^2 = 0.661
==== e(   8) =    17.96454 eV ==== 
     psi = 0.233*[#   2]+0.233*[#   3]+0.233*[#   4]+0.011*[#  13]+0.010*[#  21]
          +0.010*[#  24]+0.007*[#  11]+0.007*[#  12]+0.004*[#  15]+0.004*[#  16]
          +0.003*[#  18]+0.003*[#  19]+0.003*[#  20]+0.001*[#  22]+0.001*[#  23]
          +0.001*[#  25]
    |psi|^2 = 0.768
==== e(   9) =    27.11849 eV ==== 
     psi = 0.111*[#   6]+0.111*[#   7]+0.111*[#   9]+0.055*[#   5]+0.055*[#   8]
          +0.026*[#   2]+0.026*[#   3]+0.026*[#   4]+0.019*[#  14]+0.014*[#  10]
          +0.013*[#  15]+0.013*[#  16]+0.012*[#  11]+0.012*[#  12]+0.011*[#  13]
          +0.006*[#  22]+0.006*[#  23]+0.006*[#  25]+0.004*[#  17]+0.001*[#  18]
          +0.001*[#  19]+0.001*[#  20]
    |psi|^2 = 0.642
==== e(  10) =    27.78951 eV ==== 
     psi = 0.105*[#   6]+0.105*[#   7]+0.105*[#   9]+0.042*[#   2]+0.042*[#   3]
          +0.042*[#   4]+0.011*[#   5]+0.011*[#   8]+0.010*[#  13]+0.008*[#  11]
          +0.008*[#  12]+0.006*[#  15]+0.006*[#  16]+0.004*[#  22]+0.004*[#  23]
          +0.004*[#  25]+0.003*[#  10]+0.003*[#   1]+0.002*[#  18]+0.002*[#  19]
          +0.002*[#  20]
    |psi|^2 = 0.527

 k =  -0.6666666667  0.5000000000  0.3333333333
==== e(   1) =   -19.26874 eV ==== 
     psi = 0.979*[#  17]+0.003*[#   2]+0.003*[#   3]+0.003*[#   4]+0.002*[#   5]
          +0.002*[#   8]+0.002*[#  10]+0.001*[#  15]+0.001*[#  16]
    |psi|^2 = 0.999
==== e(   2) =    -2.70308 eV ==== 
     psi = 0.310*[#  18]+0.310*[#  19]+0.310*[#  20]+0.048*[#   1]+0.004*[#   6]
          +0.004*[#   7]+0.004*[#   9]+0.003*[#   2]+0.003*[#   3]+0.003*[#   4]
          
    |psi|^2 = 0.999
==== e(   3) =    -1.03469 eV ==== 
     psi = 0.316*[#  18]+0.316*[#  19]+0.316*[#  20]+0.011*[#   5]+0.011*[#   8]
          +0.006*[#   2]+0.006*[#   3]+0.006*[#   4]+0.001*[#   6]+0.001*[#   7]
          +0.001*[#   9]
    |psi|^2 = 0.994
==== e(   4) =    -0.63794 eV ==== 
     psi = 0.320*[#  18]+0.320*[#  19]+0.320*[#  20]+0.015*[#   5]+0.015*[#   8]
          +0.001*[#   2]+0.001*[#   3]+0.001*[#   4]
    |psi|^2 = 0.998
==== e(   5) =    10.70379 eV ==== 
     psi = 0.145*[#   2]+0.145*[#   3]+0.145*[#   4]+0.009*[#  10]+0.009*[#  14]
          +0.006*[#  17]+0.006*[#  15]+0.006*[#  16]+0.005*[#  18]+0.005*[#  19]
          +0.005*[#  20]+0.004*[#   6]+0.004*[#   7]+0.004*[#   9]+0.003*[#  11]
          +0.003*[#  12]+0.003*[#   5]+0.003*[#   8]+0.003*[#  22]+0.003*[#  23]
          +0.003*[#  25]
    |psi|^2 = 0.518
==== e(   6) =    15.13783 eV ==== 
     psi = 0.597*[#   1]+0.054*[#   2]+0.054*[#   3]+0.054*[#   4]+0.031*[#   6]
          +0.031*[#   7]+0.031*[#   9]+0.021*[#  18]+0.021*[#  19]+0.021*[#  20]
          +0.002*[#  10]+0.002*[#  15]+0.002*[#  16]+0.002*[#  11]+0.002*[#  12]
          +0.001*[#  13]+0.001*[#  22]+0.001*[#  23]+0.001*[#  25]
    |psi|^2 = 0.927
==== e(   7) =    17.90423 eV ==== 
     psi = 0.184*[#   1]+0.141*[#   2]+0.141*[#   3]+0.141*[#   4]+0.012*[#  13]
          +0.010*[#  21]+0.010*[#  24]+0.007*[#  11]+0.007*[#  12]+0.004*[#  15]
          +0.004*[#  16]+0.002*[#  18]+0.002*[#  19]+0.002*[#  20]+0.001*[#  22]
          +0.001*[#  23]+0.001*[#  25]
    |psi|^2 = 0.673
==== e(   8) =    17.96219 eV ==== 
     psi = 0.234*[#   2]+0.234*[#   3]+0.234*[#   4]+0.011*[#  13]+0.011*[#  21]
          +0.011*[#  24]+0.007*[#  11]+0.007*[#  12]+0.004*[#  15]+0.004*[#  16]
          +0.002*[#  18]+0.002*[#  19]+0.002*[#  20]+0.001*[#  22]+0.001*[#  23]
          +0.001*[#  25]
    |psi|^2 = 0.771
==== e(   9) =    27.35828 eV ==== 
     psi = 0.111*[#   6]+0.111*[#   7]+0.111*[#   9]+0.057*[#   5]+0.057*[#   8]
          +0.024*[#   2]+0.024*[#   3]+0.024*[#   4]+0.020*[#  14]+0.015*[#  10]
          +0.013*[#  15]+0.013*[#  16]+0.011*[#  11]+0.011*[#  12]+0.009*[#  13]
          +0.005*[#  22]+0.005*[#  23]+0.005*[#  25]+0.004*[#  17]+0.002*[#  18]
          +0.002*[#  19]+0.002*[#  20]
    |psi|^2 = 0.639
==== e(  10) =    27.89781 eV ==== 
     psi = 0.105*[#   6]+0.105*[#   7]+0.105*[#   9]+0.037*[#   2]+0.037*[#   3]
          +0.037*[#   4]+0.011*[#   5]+0.011*[#   8]+0.008*[#  13]+0.006*[#  11]
          +0.006*[#  12]+0.005*[#  15]+0.005*[#  16]+0.004*[#   1]+0.003*[#  22]
          +0.003*[#  23]+0.003*[#  25]+0.003*[#  10]+0.002*[#  18]+0.002*[#  19]
          +0.002*[#  20]+0.001*[#  26]
    |psi|^2 = 0.506

 k =  -0.6500000000  0.5000000000  0.3500000000
==== e(   1) =   -19.27876 eV ==== 
     psi = 0.979*[#  17]+0.003*[#   2]+0.003*[#   3]+0.003*[#   4]+0.002*[#  10]
          +0.002*[#   5]+0.002*[#   8]+0.001*[#  15]+0.001*[#  16]
    |psi|^2 = 0.999
==== e(   2) =    -2.71969 eV ==== 
     psi = 0.310*[#  18]+0.310*[#  19]+0.310*[#  20]+0.050*[#   1]+0.004*[#   6]
          +0.004*[#   7]+0.004*[#   9]+0.002*[#   2]+0.002*[#   3]+0.002*[#   4]
          
    |psi|^2 = 0.999
==== e(   3) =    -0.94753 eV ==== 
     psi = 0.316*[#  18]+0.316*[#  19]+0.316*[#  20]+0.012*[#   5]+0.012*[#   8]
          +0.005*[#   2]+0.005*[#   3]+0.005*[#   4]+0.001*[#   6]+0.001*[#   7]
          +0.001*[#   9]
    |psi|^2 = 0.995
==== e(   4) =    -0.61604 eV ==== 
     psi = 0.320*[#  18]+0.320*[#  19]+0.320*[#  20]+0.015*[#   5]+0.015*[#   8]
          +0.001*[#   2]+0.001*[#   3]+0.001*[#   4]
    |psi|^2 = 0.998
==== e(   5) =    10.55624 eV ==== 
     psi = 0.146*[#   2]+0.146*[#   3]+0.146*[#   4]+0.009*[#  14]+0.009*[#  10]
          +0.006*[#  17]+0.006*[#  15]+0.006*[#  16]+0.004*[#  18]+0.004*[#  19]
          +0.004*[#  20]+0.003*[#  11]+0.003*[#  12]+0.003*[#   6]+0.003*[#   7]
          +0.003*[#   9]+0.003*[#  22]+0.003*[#  23]+0.003*[#  25]+0.003*[#   5]
          +0.003*[#   8]
    |psi|^2 = 0.517
==== e(   6) =    15.21688 eV ==== 
     psi = 0.626*[#   1]+0.047*[#   2]+0.047*[#   3]+0.047*[#   4]+0.030*[#   6]
          +0.030*[#   7]+0.030*[#   9]+0.021*[#  18]+0.021*[#  19]+0.021*[#  20]
          +0.002*[#  10]+0.002*[#  15]+0.002*[#  16]+0.001*[#  11]+0.001*[#  12]
          +0.001*[#  13]
    |psi|^2 = 0.933
==== e(   7) =    17.89815 eV ==== 
     psi = 0.156*[#   1]+0.155*[#   2]+0.155*[#   3]+0.155*[#   4]+0.012*[#  13]
          +0.011*[#  21]+0.011*[#  24]+0.008*[#  11]+0.008*[#  12]+0.005*[#  15]
          +0.005*[#  16]+0.002*[#  18]+0.002*[#  19]+0.002*[#  20]+0.001*[#  22]
          +0.001*[#  23]+0.001*[#  25]
    |psi|^2 = 0.688
==== e(   8) =    17.95385 eV ==== 
     psi = 0.234*[#   2]+0.234*[#   3]+0.234*[#   4]+0.012*[#  13]+0.011*[#  21]
          +0.011*[#  24]+0.008*[#  11]+0.008*[#  12]+0.005*[#  15]+0.005*[#  16]
          +0.002*[#  18]+0.002*[#  19]+0.002*[#  20]+0.002*[#  22]+0.002*[#  23]
          +0.002*[#  25]
    |psi|^2 = 0.774
==== e(   9) =    27.61562 eV ==== 
     psi = 0.112*[#   6]+0.112*[#   7]+0.112*[#   9]+0.060*[#   5]+0.060*[#   8]
          +0.022*[#   2]+0.022*[#   3]+0.022*[#   4]+0.021*[#  14]+0.015*[#  10]
          +0.012*[#  15]+0.012*[#  16]+0.010*[#  11]+0.010*[#  12]+0.008*[#  13]
          +0.005*[#  22]+0.005*[#  23]+0.005*[#  25]+0.004*[#  17]+0.002*[#  18]
          +0.002*[#  19]+0.002*[#  20]
    |psi|^2 = 0.637
==== e(  10) =    27.99553 eV ==== 
     psi = 0.104*[#   6]+0.104*[#   7]+0.104*[#   9]+0.033*[#   2]+0.033*[#   3]
          +0.033*[#   4]+0.010*[#   5]+0.010*[#   8]+0.006*[#  13]+0.005*[#  11]
          +0.005*[#  12]+0.005*[#   1]+0.004*[#  15]+0.004*[#  16]+0.003*[#  10]
          +0.003*[#  22]+0.003*[#  23]+0.003*[#  25]+0.002*[#  18]+0.002*[#  19]
          +0.002*[#  20]+0.001*[#  26]
    |psi|^2 = 0.483

 k =  -0.6333333333  0.5000000000  0.3666666667
==== e(   1) =   -19.28806 eV ==== 
     psi = 0.979*[#  17]+0.003*[#   2]+0.003*[#   3]+0.003*[#   4]+0.002*[#  10]
          +0.001*[#   5]+0.001*[#   8]+0.001*[#  15]+0.001*[#  16]
    |psi|^2 = 0.999
==== e(   2) =    -2.73524 eV ==== 
     psi = 0.310*[#  18]+0.310*[#  19]+0.310*[#  20]+0.052*[#   1]+0.004*[#   6]
          +0.004*[#   7]+0.004*[#   9]+0.002*[#   2]+0.002*[#   3]+0.002*[#   4]
          
    |psi|^2 = 0.999
==== e(   3) =    -0.86607 eV ==== 
     psi = 0.317*[#  18]+0.317*[#  19]+0.317*[#  20]+0.013*[#   5]+0.013*[#   8]
          +0.004*[#   2]+0.004*[#   3]+0.004*[#   4]+0.001*[#   6]+0.001*[#   7]
          +0.001*[#   9]
    |psi|^2 = 0.995
==== e(   4) =    -0.59642 eV ==== 
     psi = 0.320*[#  18]+0.320*[#  19]+0.320*[#  20]+0.015*[#   5]+0.015*[#   8]
          +0.001*[#   2]+0.001*[#   3]+0.001*[#   4]
    |psi|^2 = 0.998
==== e(   5) =    10.42025 eV ==== 
     psi = 0.147*[#   2]+0.147*[#   3]+0.147*[#   4]+0.010*[#  14]+0.009*[#  10]
          +0.006*[#  17]+0.006*[#  15]+0.006*[#  16]+0.004*[#  18]+0.004*[#  19]
          +0.004*[#  20]+0.003*[#  11]+0.003*[#  12]+0.003*[#  22]+0.003*[#  23]
          +0.003*[#  25]+0.003*[#   6]+0.003*[#   7]+0.003*[#   9]+0.002*[#   5]
          +0.002*[#   8]
    |psi|^2 = 0.515
==== e(   6) =    15.29234 eV ==== 
     psi = 0.654*[#   1]+0.040*[#   2]+0.040*[#   3]+0.040*[#   4]+0.030*[#   6]
          +0.030*[#   7]+0.030*[#   9]+0.021*[#  18]+0.021*[#  19]+0.021*[#  20]
          +0.002*[#  10]+0.001*[#  15]+0.001*[#  16]+0.001*[#  11]+0.001*[#  12]
          
    |psi|^2 = 0.937
==== e(   7) =    17.89138 eV ==== 
     psi = 0.168*[#   2]+0.168*[#   3]+0.168*[#   4]+0.130*[#   1]+0.013*[#  13]
          +0.011*[#  21]+0.011*[#  24]+0.008*[#  11]+0.008*[#  12]+0.005*[#  15]
          +0.005*[#  16]+0.001*[#  18]+0.001*[#  19]+0.001*[#  20]+0.001*[#  22]
          +0.001*[#  23]+0.001*[#  25]
    |psi|^2 = 0.703
==== e(   8) =    17.94118 eV ==== 
     psi = 0.235*[#   2]+0.235*[#   3]+0.235*[#   4]+0.013*[#  13]+0.011*[#  21]
          +0.011*[#  24]+0.008*[#  11]+0.008*[#  12]+0.005*[#  15]+0.005*[#  16]
          +0.002*[#  22]+0.002*[#  23]+0.002*[#  25]+0.002*[#  18]+0.002*[#  19]
          +0.002*[#  20]
    |psi|^2 = 0.777
==== e(   9) =    27.88727 eV ==== 
     psi = 0.113*[#   6]+0.113*[#   7]+0.113*[#   9]+0.063*[#   5]+0.063*[#   8]
          +0.021*[#  14]+0.020*[#   2]+0.020*[#   3]+0.020*[#   4]+0.015*[#  10]
          +0.012*[#  15]+0.012*[#  16]+0.010*[#  11]+0.010*[#  12]+0.007*[#  13]
          +0.005*[#  22]+0.005*[#  23]+0.005*[#  25]+0.004*[#  17]+0.002*[#  18]
          +0.002*[#  19]+0.002*[#  20]
    |psi|^2 = 0.636
==== e(  10) =    28.07899 eV ==== 
     psi = 0.104*[#   6]+0.104*[#   7]+0.104*[#   9]+0.029*[#   2]+0.029*[#   3]
          +0.029*[#   4]+0.009*[#   5]+0.009*[#   8]+0.006*[#   1]+0.005*[#  13]
          +0.004*[#  11]+0.004*[#  12]+0.003*[#  15]+0.003*[#  16]+0.002*[#  10]
          +0.002*[#  22]+0.002*[#  23]+0.002*[#  25]+0.001*[#  18]+0.001*[#  19]
          +0.001*[#  20]+0.001*[#  26]
    |psi|^2 = 0.459

 k =  -0.6166666667  0.5000000000  0.3833333333
==== e(   1) =   -19.29648 eV ==== 
     psi = 0.980*[#  17]+0.003*[#   2]+0.003*[#   3]+0.003*[#   4]+0.002*[#  10]
          +0.001*[#  15]+0.001*[#  16]+0.001*[#   5]+0.001*[#   8]
    |psi|^2 = 0.999
==== e(   2) =    -2.74886 eV ==== 
     psi = 0.310*[#  18]+0.310*[#  19]+0.310*[#  20]+0.053*[#   1]+0.004*[#   6]
          +0.004*[#   7]+0.004*[#   9]+0.001*[#   2]+0.001*[#   3]+0.001*[#   4]
          
    |psi|^2 = 0.999
==== e(   3) =    -0.79054 eV ==== 
     psi = 0.318*[#  18]+0.318*[#  19]+0.318*[#  20]+0.013*[#   5]+0.013*[#   8]
          +0.003*[#   2]+0.003*[#   3]+0.003*[#   4]+0.001*[#   6]+0.001*[#   7]
          +0.001*[#   9]
    |psi|^2 = 0.996
==== e(   4) =    -0.57836 eV ==== 
     psi = 0.321*[#  18]+0.321*[#  19]+0.321*[#  20]+0.015*[#   5]+0.015*[#   8]
          
    |psi|^2 = 0.999
==== e(   5) =    10.29698 eV ==== 
     psi = 0.148*[#   2]+0.148*[#   3]+0.148*[#   4]+0.010*[#  14]+0.009*[#  10]
          +0.006*[#  17]+0.006*[#  15]+0.006*[#  16]+0.003*[#  11]+0.003*[#  12]
          +0.003*[#  18]+0.003*[#  19]+0.003*[#  20]+0.003*[#  22]+0.003*[#  23]
          +0.003*[#  25]+0.002*[#   6]+0.002*[#   7]+0.002*[#   9]+0.002*[#   5]
          +0.002*[#   8]
    |psi|^2 = 0.514
==== e(   6) =    15.36361 eV ==== 
     psi = 0.682*[#   1]+0.033*[#   2]+0.033*[#   3]+0.033*[#   4]+0.030*[#   6]
          +0.030*[#   7]+0.030*[#   9]+0.021*[#  18]+0.021*[#  19]+0.021*[#  20]
          +0.001*[#  10]
    |psi|^2 = 0.940
==== e(   7) =    17.88421 eV ==== 
     psi = 0.181*[#   2]+0.181*[#   3]+0.181*[#   4]+0.105*[#   1]+0.013*[#  13]
          +0.011*[#  21]+0.011*[#  24]+0.008*[#  11]+0.008*[#  12]+0.005*[#  15]
          +0.005*[#  16]+0.002*[#  22]+0.002*[#  23]+0.002*[#  25]+0.001*[#  18]
          +0.001*[#  19]+0.001*[#  20]
    |psi|^2 = 0.718
==== e(   8) =    17.92592 eV ==== 
     psi = 0.235*[#   2]+0.235*[#   3]+0.235*[#   4]+0.014*[#  13]+0.011*[#  21]
          +0.011*[#  24]+0.009*[#  11]+0.009*[#  12]+0.005*[#  15]+0.005*[#  16]
          +0.002*[#  22]+0.002*[#  23]+0.002*[#  25]+0.001*[#  18]+0.001*[#  19]
          +0.001*[#  20]
    |psi|^2 = 0.779
==== e(   9) =    28.14475 eV ==== 
     psi = 0.103*[#   6]+0.103*[#   7]+0.103*[#   9]+0.024*[#   2]+0.024*[#   3]
          +0.024*[#   4]+0.007*[#   1]+0.007*[#   5]+0.007*[#   8]+0.003*[#  13]
          +0.003*[#  11]+0.003*[#  12]+0.002*[#  15]+0.002*[#  16]+0.002*[#  10]
          +0.002*[#  22]+0.002*[#  23]+0.002*[#  25]+0.001*[#  26]+0.001*[#  18]
          +0.001*[#  19]+0.001*[#  20]+0.001*[#  30]
    |psi|^2 = 0.433
==== e(  10) =    28.16983 eV ==== 
     psi = 0.114*[#   6]+0.114*[#   7]+0.114*[#   9]+0.066*[#   5]+0.066*[#   8]
          +0.021*[#  14]+0.018*[#   2]+0.018*[#   3]+0.018*[#   4]+0.014*[#  10]
          +0.011*[#  15]+0.011*[#  16]+0.009*[#  11]+0.009*[#  12]+0.005*[#  13]
          +0.004*[#  22]+0.004*[#  23]+0.004*[#  25]+0.003*[#  17]+0.003*[#  18]
          +0.003*[#  19]+0.003*[#  20]+0.001*[#  29]
    |psi|^2 = 0.635

 k =  -0.6000000000  0.5000000000  0.4000000000
==== e(   1) =   -19.30396 eV ==== 
     psi = 0.980*[#  17]+0.003*[#   2]+0.003*[#   3]+0.003*[#   4]+0.002*[#  10]
          +0.001*[#  15]+0.001*[#  16]
    |psi|^2 = 0.999
==== e(   2) =    -2.76108 eV ==== 
     psi = 0.309*[#  18]+0.309*[#  19]+0.309*[#  20]+0.055*[#   1]+0.004*[#   6]
          +0.004*[#   7]+0.004*[#   9]
    |psi|^2 = 0.999
==== e(   3) =    -0.72227 eV ==== 
     psi = 0.319*[#  18]+0.319*[#  19]+0.319*[#  20]+0.014*[#   5]+0.014*[#   8]
          +0.003*[#   2]+0.003*[#   3]+0.003*[#   4]+0.001*[#   6]+0.001*[#   7]
          +0.001*[#   9]
    |psi|^2 = 0.997
==== e(   4) =    -0.56274 eV ==== 
     psi = 0.321*[#  18]+0.321*[#  19]+0.321*[#  20]+0.016*[#   5]+0.016*[#   8]
          
    |psi|^2 = 0.999
==== e(   5) =    10.18751 eV ==== 
     psi = 0.149*[#   2]+0.149*[#   3]+0.149*[#   4]+0.010*[#  14]+0.009*[#  10]
          +0.007*[#  17]+0.006*[#  15]+0.006*[#  16]+0.003*[#  11]+0.003*[#  12]
          +0.003*[#  22]+0.003*[#  23]+0.003*[#  25]+0.002*[#  18]+0.002*[#  19]
          +0.002*[#  20]+0.001*[#   6]+0.001*[#   7]+0.001*[#   9]+0.001*[#   5]
          +0.001*[#   8]
    |psi|^2 = 0.513
==== e(   6) =    15.42883 eV ==== 
     psi = 0.707*[#   1]+0.029*[#   6]+0.029*[#   7]+0.029*[#   9]+0.026*[#   2]
          +0.026*[#   3]+0.026*[#   4]+0.021*[#  18]+0.021*[#  19]+0.021*[#  20]
          
    |psi|^2 = 0.942
==== e(   7) =    17.87685 eV ==== 
     psi = 0.193*[#   2]+0.193*[#   3]+0.193*[#   4]+0.081*[#   1]+0.014*[#  13]
          +0.011*[#  21]+0.011*[#  24]+0.009*[#  11]+0.009*[#  12]+0.005*[#  15]
          +0.005*[#  16]+0.002*[#  22]+0.002*[#  23]+0.002*[#  25]
    |psi|^2 = 0.733
==== e(   8) =    17.90959 eV ==== 
     psi = 0.235*[#   2]+0.235*[#   3]+0.235*[#   4]+0.014*[#  13]+0.011*[#  21]
          +0.011*[#  24]+0.009*[#  11]+0.009*[#  12]+0.005*[#  15]+0.005*[#  16]
          +0.002*[#  22]+0.002*[#  23]+0.002*[#  25]
    |psi|^2 = 0.781
==== e(   9) =    28.19024 eV ==== 
     psi = 0.103*[#   6]+0.103*[#   7]+0.103*[#   9]+0.019*[#   2]+0.019*[#   3]
          +0.019*[#   4]+0.008*[#   1]+0.005*[#   5]+0.005*[#   8]+0.002*[#  11]
          +0.002*[#  12]+0.002*[#  13]+0.002*[#  10]+0.002*[#  15]+0.002*[#  16]
          +0.002*[#  26]+0.001*[#  18]+0.001*[#  19]+0.001*[#  20]+0.001*[#  22]
          +0.001*[#  23]+0.001*[#  25]+0.001*[#  30]+0.001*[#  31]+0.001*[#  32]
          
    |psi|^2 = 0.407
==== e(  10) =    28.45879 eV ==== 
     psi = 0.115*[#   6]+0.115*[#   7]+0.115*[#   9]+0.070*[#   5]+0.070*[#   8]
          +0.020*[#  14]+0.016*[#   2]+0.016*[#   3]+0.016*[#   4]+0.013*[#  10]
          +0.010*[#  15]+0.010*[#  16]+0.008*[#  11]+0.008*[#  12]+0.004*[#  13]
          +0.004*[#  22]+0.004*[#  23]+0.004*[#  25]+0.003*[#  18]+0.003*[#  19]
[...]
     psi = 0.977*[#  17]+0.008*[#   5]+0.008*[#   8]+0.001*[#   1]+0.001*[#   2]
          +0.001*[#   3]+0.001*[#   4]
    |psi|^2 = 0.999
==== e(   2) =    -2.62971 eV ==== 
     psi = 0.308*[#  18]+0.308*[#  19]+0.308*[#  20]+0.019*[#   2]+0.019*[#   3]
          +0.019*[#   4]+0.002*[#   6]+0.002*[#   7]+0.002*[#   9]
    |psi|^2 = 0.988
==== e(   3) =    -2.02397 eV ==== 
     psi = 0.311*[#  18]+0.311*[#  19]+0.311*[#  20]+0.015*[#   2]+0.015*[#   3]
          +0.015*[#   4]+0.002*[#   6]+0.002*[#   7]+0.002*[#   9]
    |psi|^2 = 0.991
==== e(   4) =    -1.10229 eV ==== 
     psi = 0.320*[#  18]+0.320*[#  19]+0.320*[#  20]+0.011*[#   1]+0.009*[#   5]
          +0.009*[#   8]+0.002*[#  13]+0.001*[#  11]+0.001*[#  12]+0.001*[#   2]
          +0.001*[#   3]+0.001*[#   4]
    |psi|^2 = 0.999
==== e(   5) =    13.95193 eV ==== 
     psi = 0.119*[#   2]+0.119*[#   3]+0.119*[#   4]+0.021*[#   6]+0.021*[#   7]
          +0.021*[#   9]+0.019*[#  18]+0.019*[#  19]+0.019*[#  20]+0.013*[#  10]
          +0.008*[#  15]+0.008*[#  16]+0.005*[#  11]+0.005*[#  12]+0.002*[#  22]
          +0.002*[#  23]+0.002*[#  25]
    |psi|^2 = 0.520
==== e(   6) =    14.29211 eV ==== 
     psi = 0.099*[#   2]+0.099*[#   3]+0.099*[#   4]+0.055*[#   6]+0.055*[#   7]
          +0.055*[#   9]+0.015*[#  18]+0.015*[#  19]+0.015*[#  20]+0.010*[#  10]
          +0.006*[#  15]+0.006*[#  16]+0.004*[#  11]+0.004*[#  12]+0.004*[#  22]
          +0.004*[#  23]+0.004*[#  25]
    |psi|^2 = 0.550
==== e(   7) =    16.31898 eV ==== 
     psi = 0.184*[#   2]+0.184*[#   3]+0.184*[#   4]+0.108*[#   1]+0.014*[#   5]
          +0.014*[#   8]+0.007*[#  17]+0.006*[#  21]+0.006*[#  24]
    |psi|^2 = 0.709
==== e(   8) =    18.02385 eV ==== 
     psi = 0.637*[#   1]+0.032*[#   2]+0.032*[#   3]+0.032*[#   4]+0.008*[#  21]
          +0.008*[#  24]+0.006*[#  13]+0.004*[#  18]+0.004*[#  19]+0.004*[#  20]
          +0.004*[#  11]+0.004*[#  12]+0.002*[#  15]+0.002*[#  16]
    |psi|^2 = 0.781
==== e(   9) =    24.09491 eV ==== 
     psi = 0.105*[#   2]+0.105*[#   3]+0.105*[#   4]+0.096*[#   6]+0.096*[#   7]
          +0.096*[#   9]+0.024*[#  13]+0.016*[#  11]+0.016*[#  12]+0.010*[#  15]
          +0.010*[#  16]+0.007*[#  22]+0.007*[#  23]+0.007*[#  25]+0.003*[#  18]
          +0.003*[#  19]+0.003*[#  20]+0.002*[#  10]
    |psi|^2 = 0.714
==== e(  10) =    28.64316 eV ==== 
     psi = 0.099*[#   6]+0.099*[#   7]+0.099*[#   9]+0.075*[#   2]+0.075*[#   3]
          +0.075*[#   4]+0.034*[#  13]+0.024*[#  11]+0.024*[#  12]+0.018*[#  15]
          +0.018*[#  16]+0.009*[#  22]+0.009*[#  23]+0.009*[#  25]+0.008*[#  10]
          +0.002*[#  18]+0.002*[#  19]+0.002*[#  20]
    |psi|^2 = 0.684

 k =  -1.0000000000  0.4166666667  0.0000000000
==== e(   1) =   -19.09077 eV ==== 
     psi = 0.977*[#  17]+0.008*[#   5]+0.008*[#   8]+0.001*[#   2]+0.001*[#   3]
          +0.001*[#   4]
    |psi|^2 = 0.999
==== e(   2) =    -2.58265 eV ==== 
     psi = 0.308*[#  18]+0.308*[#  19]+0.308*[#  20]+0.018*[#   2]+0.018*[#   3]
          +0.018*[#   4]+0.002*[#   6]+0.002*[#   7]+0.002*[#   9]
    |psi|^2 = 0.988
==== e(   3) =    -2.07558 eV ==== 
     psi = 0.311*[#  18]+0.311*[#  19]+0.311*[#  20]+0.016*[#   2]+0.016*[#   3]
          +0.016*[#   4]+0.002*[#   6]+0.002*[#   7]+0.002*[#   9]
    |psi|^2 = 0.990
==== e(   4) =    -1.09695 eV ==== 
     psi = 0.320*[#  18]+0.320*[#  19]+0.320*[#  20]+0.011*[#   1]+0.009*[#   5]
          +0.009*[#   8]+0.002*[#  13]+0.001*[#  11]+0.001*[#  12]
    |psi|^2 = 0.999
==== e(   5) =    13.96934 eV ==== 
     psi = 0.117*[#   2]+0.117*[#   3]+0.117*[#   4]+0.023*[#   6]+0.023*[#   7]
          +0.023*[#   9]+0.019*[#  18]+0.019*[#  19]+0.019*[#  20]+0.013*[#  10]
          +0.008*[#  15]+0.008*[#  16]+0.005*[#  11]+0.005*[#  12]+0.002*[#  22]
          +0.002*[#  23]+0.002*[#  25]
    |psi|^2 = 0.522
==== e(   6) =    14.25109 eV ==== 
     psi = 0.102*[#   2]+0.102*[#   3]+0.102*[#   4]+0.051*[#   6]+0.051*[#   7]
          +0.051*[#   9]+0.016*[#  18]+0.016*[#  19]+0.016*[#  20]+0.010*[#  10]
          +0.007*[#  15]+0.007*[#  16]+0.004*[#  11]+0.004*[#  12]+0.004*[#  22]
          +0.004*[#  23]+0.004*[#  25]
    |psi|^2 = 0.547
==== e(   7) =    16.32380 eV ==== 
     psi = 0.194*[#   2]+0.194*[#   3]+0.194*[#   4]+0.078*[#   1]+0.014*[#   5]
          +0.014*[#   8]+0.007*[#  17]+0.006*[#  21]+0.006*[#  24]
    |psi|^2 = 0.706
==== e(   8) =    17.99119 eV ==== 
     psi = 0.672*[#   1]+0.023*[#   2]+0.023*[#   3]+0.023*[#   4]+0.008*[#  21]
          +0.008*[#  24]+0.006*[#  13]+0.004*[#  18]+0.004*[#  19]+0.004*[#  20]
          +0.004*[#  11]+0.004*[#  12]+0.002*[#  15]+0.002*[#  16]
    |psi|^2 = 0.788
==== e(   9) =    24.43599 eV ==== 
     psi = 0.102*[#   2]+0.102*[#   3]+0.102*[#   4]+0.098*[#   6]+0.098*[#   7]
          +0.098*[#   9]+0.025*[#  13]+0.016*[#  11]+0.016*[#  12]+0.011*[#  15]
          +0.011*[#  16]+0.007*[#  22]+0.007*[#  23]+0.007*[#  25]+0.003*[#  18]
          +0.003*[#  19]+0.003*[#  20]+0.002*[#  10]
    |psi|^2 = 0.713
==== e(  10) =    28.22866 eV ==== 
     psi = 0.100*[#   6]+0.100*[#   7]+0.100*[#   9]+0.077*[#   2]+0.077*[#   3]
          +0.077*[#   4]+0.033*[#  13]+0.023*[#  11]+0.023*[#  12]+0.017*[#  15]
          +0.017*[#  16]+0.009*[#  22]+0.009*[#  23]+0.009*[#  25]+0.007*[#  10]
          +0.002*[#  18]+0.002*[#  19]+0.002*[#  20]
    |psi|^2 = 0.688

 k =  -1.0000000000  0.4333333333  0.0000000000
==== e(   1) =   -19.09121 eV ==== 
     psi = 0.977*[#  17]+0.008*[#   5]+0.008*[#   8]+0.001*[#   2]+0.001*[#   3]
          +0.001*[#   4]
    |psi|^2 = 0.999
==== e(   2) =    -2.53447 eV ==== 
     psi = 0.309*[#  18]+0.309*[#  19]+0.309*[#  20]+0.018*[#   2]+0.018*[#   3]
          +0.018*[#   4]+0.002*[#   6]+0.002*[#   7]+0.002*[#   9]
    |psi|^2 = 0.988
==== e(   3) =    -2.12719 eV ==== 
     psi = 0.310*[#  18]+0.310*[#  19]+0.310*[#  20]+0.016*[#   2]+0.016*[#   3]
          +0.016*[#   4]+0.002*[#   6]+0.002*[#   7]+0.002*[#   9]
    |psi|^2 = 0.990
==== e(   4) =    -1.09235 eV ==== 
     psi = 0.320*[#  18]+0.320*[#  19]+0.320*[#  20]+0.011*[#   1]+0.009*[#   5]
          +0.009*[#   8]+0.002*[#  13]+0.001*[#  11]+0.001*[#  12]
    |psi|^2 = 0.999
==== e(   5) =    13.98850 eV ==== 
     psi = 0.116*[#   2]+0.116*[#   3]+0.116*[#   4]+0.025*[#   6]+0.025*[#   7]
          +0.025*[#   9]+0.019*[#  18]+0.019*[#  19]+0.019*[#  20]+0.013*[#  10]
          +0.008*[#  15]+0.008*[#  16]+0.005*[#  11]+0.005*[#  12]+0.002*[#  22]
          +0.002*[#  23]+0.002*[#  25]
    |psi|^2 = 0.525
==== e(   6) =    14.21280 eV ==== 
     psi = 0.104*[#   2]+0.104*[#   3]+0.104*[#   4]+0.048*[#   6]+0.048*[#   7]
          +0.048*[#   9]+0.016*[#  18]+0.016*[#  19]+0.016*[#  20]+0.011*[#  10]
          +0.007*[#  15]+0.007*[#  16]+0.004*[#  11]+0.004*[#  12]+0.003*[#  22]
          +0.003*[#  23]+0.003*[#  25]
    |psi|^2 = 0.545
==== e(   7) =    16.32794 eV ==== 
     psi = 0.202*[#   2]+0.202*[#   3]+0.202*[#   4]+0.051*[#   1]+0.014*[#   5]
          +0.014*[#   8]+0.007*[#  17]+0.006*[#  21]+0.006*[#  24]
    |psi|^2 = 0.703
==== e(   8) =    17.96397 eV ==== 
     psi = 0.703*[#   1]+0.015*[#   2]+0.015*[#   3]+0.015*[#   4]+0.009*[#  21]
          +0.009*[#  24]+0.006*[#  13]+0.004*[#  18]+0.004*[#  19]+0.004*[#  20]
          +0.003*[#  11]+0.003*[#  12]+0.002*[#  15]+0.002*[#  16]
    |psi|^2 = 0.794
==== e(   9) =    24.78447 eV ==== 
     psi = 0.099*[#   2]+0.099*[#   3]+0.099*[#   4]+0.099*[#   6]+0.099*[#   7]
          +0.099*[#   9]+0.025*[#  13]+0.017*[#  11]+0.017*[#  12]+0.011*[#  15]
          +0.011*[#  16]+0.007*[#  22]+0.007*[#  23]+0.007*[#  25]+0.003*[#  18]
          +0.003*[#  19]+0.003*[#  20]+0.003*[#  10]
    |psi|^2 = 0.711
==== e(  10) =    27.82018 eV ==== 
     psi = 0.101*[#   6]+0.101*[#   7]+0.101*[#   9]+0.079*[#   2]+0.079*[#   3]
          +0.079*[#   4]+0.032*[#  13]+0.023*[#  11]+0.023*[#  12]+0.016*[#  15]
          +0.016*[#  16]+0.009*[#  22]+0.009*[#  23]+0.009*[#  25]+0.007*[#  10]
          +0.002*[#  18]+0.002*[#  19]+0.002*[#  20]
    |psi|^2 = 0.692

 k =  -1.0000000000  0.4500000000  0.0000000000
==== e(   1) =   -19.09154 eV ==== 
     psi = 0.977*[#  17]+0.008*[#   5]+0.008*[#   8]+0.001*[#   2]+0.001*[#   3]
          +0.001*[#   4]
    |psi|^2 = 0.999
==== e(   2) =    -2.48505 eV ==== 
     psi = 0.309*[#  18]+0.309*[#  19]+0.309*[#  20]+0.018*[#   2]+0.018*[#   3]
          +0.018*[#   4]+0.002*[#   6]+0.002*[#   7]+0.002*[#   9]
    |psi|^2 = 0.988
==== e(   3) =    -2.17876 eV ==== 
     psi = 0.310*[#  18]+0.310*[#  19]+0.310*[#  20]+0.016*[#   2]+0.016*[#   3]
          +0.016*[#   4]+0.002*[#   6]+0.002*[#   7]+0.002*[#   9]
    |psi|^2 = 0.990
==== e(   4) =    -1.08841 eV ==== 
     psi = 0.320*[#  18]+0.320*[#  19]+0.320*[#  20]+0.012*[#   1]+0.009*[#   5]
          +0.009*[#   8]+0.002*[#  13]+0.001*[#  11]+0.001*[#  12]
    |psi|^2 = 0.999
==== e(   5) =    14.00966 eV ==== 
     psi = 0.115*[#   2]+0.115*[#   3]+0.115*[#   4]+0.027*[#   6]+0.027*[#   7]
          +0.027*[#   9]+0.019*[#  18]+0.019*[#  19]+0.019*[#  20]+0.013*[#  10]
          +0.008*[#  15]+0.008*[#  16]+0.005*[#  11]+0.005*[#  12]+0.002*[#  22]
          +0.002*[#  23]+0.002*[#  25]
    |psi|^2 = 0.527
==== e(   6) =    14.17713 eV ==== 
     psi = 0.106*[#   2]+0.106*[#   3]+0.106*[#   4]+0.044*[#   6]+0.044*[#   7]
          +0.044*[#   9]+0.016*[#  18]+0.016*[#  19]+0.016*[#  20]+0.011*[#  10]
          +0.007*[#  15]+0.007*[#  16]+0.004*[#  11]+0.004*[#  12]+0.003*[#  22]
          +0.003*[#  23]+0.003*[#  25]
    |psi|^2 = 0.542
==== e(   7) =    16.33130 eV ==== 
     psi = 0.208*[#   2]+0.208*[#   3]+0.208*[#   4]+0.029*[#   1]+0.014*[#   5]
          +0.014*[#   8]+0.007*[#  17]+0.006*[#  21]+0.006*[#  24]
    |psi|^2 = 0.701
==== e(   8) =    17.94253 eV ==== 
     psi = 0.728*[#   1]+0.009*[#  21]+0.009*[#  24]+0.009*[#   2]+0.009*[#   3]
          +0.009*[#   4]+0.005*[#  13]+0.004*[#  18]+0.004*[#  19]+0.004*[#  20]
          +0.003*[#  11]+0.003*[#  12]+0.002*[#  15]+0.002*[#  16]
    |psi|^2 = 0.800
==== e(   9) =    25.14017 eV ==== 
     psi = 0.100*[#   6]+0.100*[#   7]+0.100*[#   9]+0.096*[#   2]+0.096*[#   3]
          +0.096*[#   4]+0.026*[#  13]+0.018*[#  11]+0.018*[#  12]+0.012*[#  15]
          +0.012*[#  16]+0.008*[#  22]+0.008*[#  23]+0.008*[#  25]+0.003*[#  10]
          +0.003*[#  18]+0.003*[#  19]+0.003*[#  20]
    |psi|^2 = 0.710
==== e(  10) =    27.41786 eV ==== 
     psi = 0.101*[#   6]+0.101*[#   7]+0.101*[#   9]+0.081*[#   2]+0.081*[#   3]
          +0.081*[#   4]+0.031*[#  13]+0.022*[#  11]+0.022*[#  12]+0.016*[#  15]
          +0.016*[#  16]+0.009*[#  22]+0.009*[#  23]+0.009*[#  25]+0.006*[#  10]
          +0.002*[#  18]+0.002*[#  19]+0.002*[#  20]
    |psi|^2 = 0.695

 k =  -1.0000000000  0.4666666667  0.0000000000
==== e(   1) =   -19.09180 eV ==== 
     psi = 0.977*[#  17]+0.008*[#   5]+0.008*[#   8]+0.001*[#   2]+0.001*[#   3]
          +0.001*[#   4]
    |psi|^2 = 0.999
==== e(   2) =    -2.43522 eV ==== 
     psi = 0.309*[#  18]+0.309*[#  19]+0.309*[#  20]+0.018*[#   2]+0.018*[#   3]
          +0.018*[#   4]+0.002*[#   6]+0.002*[#   7]+0.002*[#   9]
    |psi|^2 = 0.989
==== e(   3) =    -2.23059 eV ==== 
     psi = 0.310*[#  18]+0.310*[#  19]+0.310*[#  20]+0.017*[#   2]+0.017*[#   3]
          +0.017*[#   4]+0.002*[#   6]+0.002*[#   7]+0.002*[#   9]
    |psi|^2 = 0.990
==== e(   4) =    -1.08613 eV ==== 
     psi = 0.321*[#  18]+0.321*[#  19]+0.321*[#  20]+0.012*[#   1]+0.010*[#   5]
          +0.010*[#   8]+0.002*[#  13]+0.001*[#  11]+0.001*[#  12]
    |psi|^2 = 0.999
==== e(   5) =    14.03239 eV ==== 
     psi = 0.114*[#   2]+0.114*[#   3]+0.114*[#   4]+0.030*[#   6]+0.030*[#   7]
          +0.030*[#   9]+0.018*[#  18]+0.018*[#  19]+0.018*[#  20]+0.012*[#  10]
          +0.008*[#  15]+0.008*[#  16]+0.005*[#  11]+0.005*[#  12]+0.002*[#  22]
          +0.002*[#  23]+0.002*[#  25]
    |psi|^2 = 0.530
==== e(   6) =    14.14371 eV ==== 
     psi = 0.108*[#   2]+0.108*[#   3]+0.108*[#   4]+0.041*[#   6]+0.041*[#   7]
          +0.041*[#   9]+0.017*[#  18]+0.017*[#  19]+0.017*[#  20]+0.011*[#  10]
          +0.007*[#  15]+0.007*[#  16]+0.004*[#  11]+0.004*[#  12]+0.003*[#  22]
          +0.003*[#  23]+0.003*[#  25]
    |psi|^2 = 0.540
==== e(   7) =    16.33376 eV ==== 
     psi = 0.213*[#   2]+0.213*[#   3]+0.213*[#   4]+0.014*[#   5]+0.014*[#   8]
          +0.013*[#   1]+0.007*[#  17]+0.005*[#  21]+0.005*[#  24]
    |psi|^2 = 0.698
==== e(   8) =    17.92688 eV ==== 
     psi = 0.746*[#   1]+0.009*[#  21]+0.009*[#  24]+0.005*[#  13]+0.004*[#   2]
          +0.004*[#   3]+0.004*[#   4]+0.004*[#  18]+0.004*[#  19]+0.004*[#  20]
          +0.003*[#  11]+0.003*[#  12]+0.002*[#  15]+0.002*[#  16]
    |psi|^2 = 0.804
==== e(   9) =    25.50291 eV ==== 
     psi = 0.101*[#   6]+0.101*[#   7]+0.101*[#   9]+0.093*[#   2]+0.093*[#   3]
          +0.093*[#   4]+0.027*[#  13]+0.018*[#  11]+0.018*[#  12]+0.012*[#  15]
          +0.012*[#  16]+0.008*[#  22]+0.008*[#  23]+0.008*[#  25]+0.004*[#  10]
          +0.003*[#  18]+0.003*[#  19]+0.003*[#  20]
    |psi|^2 = 0.708
==== e(  10) =    27.02180 eV ==== 
     psi = 0.101*[#   6]+0.101*[#   7]+0.101*[#   9]+0.083*[#   2]+0.083*[#   3]
          +0.083*[#   4]+0.031*[#  13]+0.021*[#  11]+0.021*[#  12]+0.015*[#  15]
          +0.015*[#  16]+0.009*[#  22]+0.009*[#  23]+0.009*[#  25]+0.006*[#  10]
          +0.002*[#  18]+0.002*[#  19]+0.002*[#  20]
    |psi|^2 = 0.698

 k =  -1.0000000000  0.4833333333  0.0000000000
==== e(   1) =   -19.09195 eV ==== 
     psi = 0.977*[#  17]+0.008*[#   5]+0.008*[#   8]+0.001*[#   2]+0.001*[#   3]
          +0.001*[#   4]
    |psi|^2 = 0.999
==== e(   2) =    -2.38472 eV ==== 
     psi = 0.309*[#  18]+0.309*[#  19]+0.309*[#  20]+0.017*[#   2]+0.017*[#   3]
          +0.017*[#   4]+0.002*[#   6]+0.002*[#   7]+0.002*[#   9]
    |psi|^2 = 0.989
==== e(   3) =    -2.28227 eV ==== 
     psi = 0.310*[#  18]+0.310*[#  19]+0.310*[#  20]+0.017*[#   2]+0.017*[#   3]
          +0.017*[#   4]+0.002*[#   6]+0.002*[#   7]+0.002*[#   9]
    |psi|^2 = 0.989
==== e(   4) =    -1.08456 eV ==== 
     psi = 0.321*[#  18]+0.321*[#  19]+0.321*[#  20]+0.012*[#   1]+0.010*[#   5]
          +0.010*[#   8]+0.002*[#  13]+0.001*[#  11]+0.001*[#  12]
    |psi|^2 = 0.999
==== e(   5) =    14.05706 eV ==== 
     psi = 0.112*[#   2]+0.112*[#   3]+0.112*[#   4]+0.032*[#   6]+0.032*[#   7]
          +0.032*[#   9]+0.018*[#  18]+0.018*[#  19]+0.018*[#  20]+0.012*[#  10]
          +0.008*[#  15]+0.008*[#  16]+0.005*[#  11]+0.005*[#  12]+0.002*[#  22]
          +0.002*[#  23]+0.002*[#  25]
    |psi|^2 = 0.532
==== e(   6) =    14.11263 eV ==== 
     psi = 0.109*[#   2]+0.109*[#   3]+0.109*[#   4]+0.038*[#   6]+0.038*[#   7]
          +0.038*[#   9]+0.017*[#  18]+0.017*[#  19]+0.017*[#  20]+0.012*[#  10]
          +0.007*[#  15]+0.007*[#  16]+0.004*[#  11]+0.004*[#  12]+0.003*[#  22]
          +0.003*[#  23]+0.003*[#  25]
    |psi|^2 = 0.537
==== e(   7) =    16.33528 eV ==== 
     psi = 0.216*[#   2]+0.216*[#   3]+0.216*[#   4]+0.014*[#   5]+0.014*[#   8]
          +0.007*[#  17]+0.005*[#  21]+0.005*[#  24]+0.003*[#   1]
    |psi|^2 = 0.697
==== e(   8) =    17.91747 eV ==== 
     psi = 0.758*[#   1]+0.009*[#  21]+0.009*[#  24]+0.005*[#  13]+0.004*[#  18]
          +0.004*[#  19]+0.004*[#  20]+0.003*[#  11]+0.003*[#  12]+0.002*[#  15]
          +0.002*[#  16]
    |psi|^2 = 0.806
==== e(   9) =    25.87257 eV ==== 
     psi = 0.101*[#   6]+0.101*[#   7]+0.101*[#   9]+0.091*[#   2]+0.091*[#   3]
          +0.091*[#   4]+0.028*[#  13]+0.019*[#  11]+0.019*[#  12]+0.013*[#  15]
          +0.013*[#  16]+0.008*[#  22]+0.008*[#  23]+0.008*[#  25]+0.004*[#  10]
          +0.002*[#  18]+0.002*[#  19]+0.002*[#  20]
    |psi|^2 = 0.706
==== e(  10) =    26.63215 eV ==== 
     psi = 0.102*[#   6]+0.102*[#   7]+0.102*[#   9]+0.086*[#   2]+0.086*[#   3]
          +0.086*[#   4]+0.030*[#  13]+0.021*[#  11]+0.021*[#  12]+0.014*[#  15]
          +0.014*[#  16]+0.008*[#  22]+0.008*[#  23]+0.008*[#  25]+0.005*[#  10]
          +0.002*[#  18]+0.002*[#  19]+0.002*[#  20]
    |psi|^2 = 0.701

 k =  -1.0000000000  0.5000000000  0.0000000000
==== e(   1) =   -19.09200 eV ==== 
     psi = 0.977*[#  17]+0.008*[#   5]+0.008*[#   8]+0.001*[#   2]+0.001*[#   3]
          +0.001*[#   4]
    |psi|^2 = 0.999
==== e(   2) =    -2.33370 eV ==== 
     psi = 0.309*[#  18]+0.309*[#  19]+0.309*[#  20]+0.017*[#   2]+0.017*[#   3]
          +0.017*[#   4]+0.002*[#   6]+0.002*[#   7]+0.002*[#   9]
    |psi|^2 = 0.989
==== e(   3) =    -2.33370 eV ==== 
     psi = 0.309*[#  18]+0.309*[#  19]+0.309*[#  20]+0.017*[#   2]+0.017*[#   3]
          +0.017*[#   4]+0.002*[#   6]+0.002*[#   7]+0.002*[#   9]
    |psi|^2 = 0.989
==== e(   4) =    -1.08404 eV ==== 
     psi = 0.321*[#  18]+0.321*[#  19]+0.321*[#  20]+0.012*[#   1]+0.010*[#   5]
          +0.010*[#   8]+0.002*[#  13]+0.001*[#  11]+0.001*[#  12]
    |psi|^2 = 0.999
==== e(   5) =    14.08377 eV ==== 
     psi = 0.111*[#   2]+0.111*[#   3]+0.111*[#   4]+0.035*[#   6]+0.035*[#   7]
          +0.035*[#   9]+0.018*[#  18]+0.018*[#  19]+0.018*[#  20]+0.012*[#  10]
          +0.007*[#  15]+0.007*[#  16]+0.005*[#  11]+0.005*[#  12]+0.003*[#  22]
          +0.003*[#  23]+0.003*[#  25]
    |psi|^2 = 0.535
==== e(   6) =    14.08377 eV ==== 
     psi = 0.111*[#   2]+0.111*[#   3]+0.111*[#   4]+0.035*[#   6]+0.035*[#   7]
          +0.035*[#   9]+0.018*[#  18]+0.018*[#  19]+0.018*[#  20]+0.012*[#  10]
          +0.007*[#  15]+0.007*[#  16]+0.005*[#  11]+0.005*[#  12]+0.003*[#  22]
          +0.003*[#  23]+0.003*[#  25]
    |psi|^2 = 0.535
==== e(   7) =    16.33579 eV ==== 
     psi = 0.217*[#   2]+0.217*[#   3]+0.217*[#   4]+0.014*[#   5]+0.014*[#   8]
          +0.007*[#  17]+0.005*[#  21]+0.005*[#  24]
    |psi|^2 = 0.697
==== e(   8) =    17.91432 eV ==== 
     psi = 0.761*[#   1]+0.009*[#  21]+0.009*[#  24]+0.005*[#  13]+0.004*[#  18]
          +0.004*[#  19]+0.004*[#  20]+0.003*[#  11]+0.003*[#  12]+0.002*[#  15]
          +0.002*[#  16]
    |psi|^2 = 0.807
==== e(   9) =    26.24903 eV ==== 
     psi = 0.101*[#   6]+0.101*[#   7]+0.101*[#   9]+0.088*[#   2]+0.088*[#   3]
          +0.088*[#   4]+0.029*[#  13]+0.020*[#  11]+0.020*[#  12]+0.014*[#  15]
          +0.014*[#  16]+0.008*[#  22]+0.008*[#  23]+0.008*[#  25]+0.005*[#  10]
          +0.002*[#  18]+0.002*[#  19]+0.002*[#  20]
    |psi|^2 = 0.703
==== e(  10) =    26.24903 eV ==== 
     psi = 0.101*[#   6]+0.101*[#   7]+0.101*[#   9]+0.088*[#   2]+0.088*[#   3]
          +0.088*[#   4]+0.029*[#  13]+0.020*[#  11]+0.020*[#  12]+0.014*[#  15]
          +0.014*[#  16]+0.008*[#  22]+0.008*[#  23]+0.008*[#  25]+0.005*[#  10]
          +0.002*[#  18]+0.002*[#  19]+0.002*[#  20]
    |psi|^2 = 0.703

Lowdin Charges: 

     Atom #   1: total charge =   0.5080, s =  0.2332, 
     Atom #   1: total charge =   0.5080, p =  0.1363, pz=  0.0454, px=  0.0454, py=  0.0454, 
     Atom #   1: total charge =   0.5080, d =  0.0825, dz2=  0.0314, dxz=  0.0066, dyz=  0.0066, dx2-y2=  0.0314, dxy=  0.0066, 
     Atom #   1: total charge =   0.5080, f =  0.0561, fz3=  0.0150, fxz2=  0.0079, fyz2=  0.0079, fzx2-zy2=  0.0037, fxyz=  0.0000, fx3-3xy2=  0.0107, f3yx2-y3=  0.0107, 
     Atom #   2: total charge =   7.4662, s =  1.8100, 
     Atom #   2: total charge =   7.4662, p =  5.6559, pz=  1.8853, px=  1.8853, py=  1.8853, 
     Atom #   2: total charge =   7.4662, d =  0.0003, dz2=  0.0000, dxz=  0.0001, dyz=  0.0001, dx2-y2=  0.0000, dxy=  0.0001, 
     Atom #   2: total charge =   7.4662, f =  0.0000, fz3=  0.0000, fxz2=  0.0000, fyz2=  0.0000, fzx2-zy2=  0.0000, fxyz=  0.0000, fx3-3xy2=  0.0000, f3yx2-y3=  0.0000, 
     Spilling Parameter:   0.0032

     PROJWFC      :     26.04s CPU     27.67s WALL


   This run was terminated on:   9:11:53   2Apr2024            

=------------------------------------------------------------------------------=
   JOB DONE.
=------------------------------------------------------------------------------=
